
    -----------------------------------------------------------------------
          Psi4: An Open-Source Ab Initio Electronic Structure Package
                               Psi4 1.3.2 release

                         Git: Rev {HEAD} ecbda83 


    R. M. Parrish, L. A. Burns, D. G. A. Smith, A. C. Simmonett,
    A. E. DePrince III, E. G. Hohenstein, U. Bozkaya, A. Yu. Sokolov,
    R. Di Remigio, R. M. Richard, J. F. Gonthier, A. M. James,
    H. R. McAlexander, A. Kumar, M. Saitow, X. Wang, B. P. Pritchard,
    P. Verma, H. F. Schaefer III, K. Patkowski, R. A. King, E. F. Valeev,
    F. A. Evangelista, J. M. Turney, T. D. Crawford, and C. D. Sherrill,
    J. Chem. Theory Comput. 13(7) pp 3185--3197 (2017).
    (doi: 10.1021/acs.jctc.7b00174)


                         Additional Contributions by
    P. Kraus, H. Kruse, M. H. Lechner, M. C. Schieber, R. A. Shaw,
    A. Alenaizan, R. Galvelis, Z. L. Glick, S. Lehtola, and J. P. Misiewicz

    -----------------------------------------------------------------------


    Psi4 started on: Tuesday, 23 July 2019 04:11PM

    Process ID: 15359
    Host:       adabbott
    PSIDATADIR: /home/adabbott/anaconda3/envs/peslearn/share/psi4
    Memory:     500.0 MiB
    Threads:    1
    
  ==> Input File <==

--------------------------------------------------------------------------
# density fitted hartree fock 
molecule h2o {
noreorient
nocom
0 1
H 0.0000000000 0.0000000000 0.9521306472
H 0.0000000000 0.8854192632 -0.3501221182
O 0.0000000000 0.0000000000 0.0000000000
}

set scf_type pk
set basis 6-31g
set e_convergence 10
gradient('hf')

--------------------------------------------------------------------------
gradient() will perform analytic gradient computation.

*** tstart() called on adabbott
*** at Tue Jul 23 16:11:07 2019

   => Loading Basis Set <=

    Name: 6-31G
    Role: ORBITAL
    Keyword: BASIS
    atoms 1-2 entry H          line    26 file /home/adabbott/anaconda3/envs/peslearn/share/psi4/basis/6-31g.gbs 
    atoms 3   entry O          line   117 file /home/adabbott/anaconda3/envs/peslearn/share/psi4/basis/6-31g.gbs 


         ---------------------------------------------------------
                                   SCF
               by Justin Turney, Rob Parrish, Andy Simmonett
                          and Daniel G. A. Smith
                              RHF Reference
                        1 Threads,    500 MiB Core
         ---------------------------------------------------------

  ==> Geometry <==

    Molecular point group: cs
    Full point group: Cs

    Geometry (in Angstrom), charge = 0, multiplicity = 1:

       Center              X                  Y                   Z               Mass       
    ------------   -----------------  -----------------  -----------------  -----------------
         H            0.000000000000     0.000000000000     0.952130647200     1.007825032230
         H            0.000000000000     0.885419263200    -0.350122118200     1.007825032230
         O            0.000000000000     0.000000000000     0.000000000000    15.994914619570

  Running in cs symmetry.

  Rotational constants: A =     29.18181  B =     13.49024  C =      9.22547 [cm^-1]
  Rotational constants: A = 874848.53638  B = 404427.07780  C = 276572.48615 [MHz]
  Nuclear repulsion =    9.228553687740394

  Charge       = 0
  Multiplicity = 1
  Electrons    = 10
  Nalpha       = 5
  Nbeta        = 5

  ==> Algorithm <==

  SCF Algorithm Type is PK.
  DIIS enabled.
  MOM disabled.
  Fractional occupation disabled.
  Guess Type is SAD.
  Energy threshold   = 1.00e-10
  Density threshold  = 1.00e-08
  Integral threshold = 0.00e+00

  ==> Primary Basis <==

  Basis Set: 6-31G
    Blend: 6-31G
    Number of shells: 9
    Number of basis function: 13
    Number of Cartesian functions: 13
    Spherical Harmonics?: false
    Max angular momentum: 1

  ==> Pre-Iterations <==

   -------------------------------------------------------
    Irrep   Nso     Nmo     Nalpha   Nbeta   Ndocc  Nsocc
   -------------------------------------------------------
     A'        11      11       0       0       0       0
     A"         2       2       0       0       0       0
   -------------------------------------------------------
    Total      13      13       5       5       5       0
   -------------------------------------------------------

  ==> Integral Setup <==

  Using in-core PK algorithm.
   Calculation information:
      Number of atoms:                   3
      Number of AO shells:               9
      Number of primitives:             22
      Number of atomic orbitals:        13
      Number of basis functions:        13

      Integral cutoff                 1.00e-12
      Number of threads:                 1

  Performing in-core PK
  Using 8372 doubles for integral storage.
  We computed 1035 shell quartets total.
  Whereas there are 1035 unique shell quartets.

  ==> DiskJK: Disk-Based J/K Matrices <==

    J tasked:                  Yes
    K tasked:                  Yes
    wK tasked:                  No
    Memory [MiB]:              375
    Schwarz Cutoff:          1E-12

    OpenMP threads:              1

  Minimum eigenvalue in the overlap matrix is 6.8987851635E-02.
  Using Symmetric Orthogonalization.

  SCF Guess: Superposition of Atomic Densities via on-the-fly atomic UHF.

  ==> Iterations <==

                        Total Energy        Delta E     RMS |[F,P]|

   @RHF iter SAD:   -75.52464020212692   -7.55246e+01   0.00000e+00 
   @RHF iter   1:   -75.91443576258152   -3.89796e-01   3.60056e-02 DIIS
   @RHF iter   2:   -75.96679744601788   -5.23617e-02   2.05707e-02 DIIS
   @RHF iter   3:   -75.98502058524257   -1.82231e-02   1.70405e-03 DIIS
   @RHF iter   4:   -75.98533426473335   -3.13679e-04   2.99591e-04 DIIS
   @RHF iter   5:   -75.98534554743863   -1.12827e-05   4.78671e-05 DIIS
   @RHF iter   6:   -75.98534596203550   -4.14597e-07   1.00601e-05 DIIS
   @RHF iter   7:   -75.98534598148096   -1.94455e-08   1.80315e-06 DIIS
   @RHF iter   8:   -75.98534598204401   -5.63048e-10   2.77433e-07 DIIS
   @RHF iter   9:   -75.98534598205200   -7.98650e-12   2.78186e-08 DIIS
   @RHF iter  10:   -75.98534598205210   -9.94760e-14   2.85757e-09 DIIS
  Energy and wave function converged.


  ==> Post-Iterations <==

    Orbital Energies [Eh]
    ---------------------

    Doubly Occupied:                                                      

       1Ap   -20.553935     2Ap    -1.351162     3Ap    -0.724931  
       4Ap    -0.547812     1App   -0.498119  

    Virtual:                                                              

       5Ap     0.206363     6Ap     0.302291     7Ap     1.104495  
       8Ap     1.157675     2App    1.167200     9Ap     1.204974  
      10Ap     1.388226    11Ap     1.675826  

    Final Occupation by Irrep:
             Ap   App 
    DOCC [     4,    1 ]

  @RHF Final Energy:   -75.98534598205210

   => Energetics <=

    Nuclear Repulsion Energy =              9.2285536877403942
    One-Electron Energy =                -123.0758816026033173
    Two-Electron Energy =                  37.8619819328108278
    Total Energy =                        -75.9853459820520811

Computation Completed


Properties will be evaluated at   0.000000,   0.000000,   0.000000 [a0]

Properties computed using the SCF density matrix

  Nuclear Dipole Moment: [e a0]
     X:     0.0000      Y:     1.6732      Z:     1.1376

  Electronic Dipole Moment: [e a0]
     X:     0.0000      Y:    -0.8595      Z:    -0.5844

  Dipole Moment: [e a0]
     X:     0.0000      Y:     0.8137      Z:     0.5533     Total:     0.9840

  Dipole Moment: [D]
     X:     0.0000      Y:     2.0683      Z:     1.4063     Total:     2.5011


*** tstop() called on adabbott at Tue Jul 23 16:11:07 2019
Module time:
	user time   =       0.30 seconds =       0.01 minutes
	system time =       0.01 seconds =       0.00 minutes
	total time  =          0 seconds =       0.00 minutes
Total time:
	user time   =       0.30 seconds =       0.01 minutes
	system time =       0.01 seconds =       0.00 minutes
	total time  =          0 seconds =       0.00 minutes

*** tstart() called on adabbott
*** at Tue Jul 23 16:11:07 2019


         ------------------------------------------------------------
                                   SCF GRAD                          
                          Rob Parrish, Justin Turney,                
                       Andy Simmonett, and Alex Sokolov              
         ------------------------------------------------------------

  ==> Geometry <==

    Molecular point group: cs
    Full point group: Cs

    Geometry (in Angstrom), charge = 0, multiplicity = 1:

       Center              X                  Y                   Z               Mass       
    ------------   -----------------  -----------------  -----------------  -----------------
         H            0.000000000000     0.000000000000     0.952130647200     1.007825032230
         H            0.000000000000     0.885419263200    -0.350122118200     1.007825032230
         O            0.000000000000     0.000000000000     0.000000000000    15.994914619570

  Nuclear repulsion =    9.228553687740394

  ==> Basis Set <==

  Basis Set: 6-31G
    Blend: 6-31G
    Number of shells: 9
    Number of basis function: 13
    Number of Cartesian functions: 13
    Spherical Harmonics?: false
    Max angular momentum: 1

  ==> DirectJKGrad: Integral-Direct SCF Gradients <==

    Gradient:                    1
    J tasked:                  Yes
    K tasked:                  Yes
    wK tasked:                  No
    Integrals threads:           1
    Schwarz Cutoff:          0E+00


  -Total Gradient:
     Atom            X                  Y                   Z
    ------   -----------------  -----------------  -----------------
       1        0.000000000000    -0.000254256580     0.002759354511
       2        0.000000000000     0.002472522833    -0.001251125269
       3        0.000000000000    -0.002218266253    -0.001508229242


*** tstop() called on adabbott at Tue Jul 23 16:11:07 2019
Module time:
	user time   =       0.04 seconds =       0.00 minutes
	system time =       0.00 seconds =       0.00 minutes
	total time  =          0 seconds =       0.00 minutes
Total time:
	user time   =       0.35 seconds =       0.01 minutes
	system time =       0.01 seconds =       0.00 minutes
	total time  =          0 seconds =       0.00 minutes

    Psi4 stopped on: Tuesday, 23 July 2019 04:11PM
    Psi4 wall time for execution: 0:00:00.37

*** Psi4 exiting successfully. Buy a developer a beer!
