
    -----------------------------------------------------------------------
          Psi4: An Open-Source Ab Initio Electronic Structure Package
                               Psi4 1.3.2 release

                         Git: Rev {HEAD} ecbda83 


    R. M. Parrish, L. A. Burns, D. G. A. Smith, A. C. Simmonett,
    A. E. DePrince III, E. G. Hohenstein, U. Bozkaya, A. Yu. Sokolov,
    R. Di Remigio, R. M. Richard, J. F. Gonthier, A. M. James,
    H. R. McAlexander, A. Kumar, M. Saitow, X. Wang, B. P. Pritchard,
    P. Verma, H. F. Schaefer III, K. Patkowski, R. A. King, E. F. Valeev,
    F. A. Evangelista, J. M. Turney, T. D. Crawford, and C. D. Sherrill,
    J. Chem. Theory Comput. 13(7) pp 3185--3197 (2017).
    (doi: 10.1021/acs.jctc.7b00174)


                         Additional Contributions by
    P. Kraus, H. Kruse, M. H. Lechner, M. C. Schieber, R. A. Shaw,
    A. Alenaizan, R. Galvelis, Z. L. Glick, S. Lehtola, and J. P. Misiewicz

    -----------------------------------------------------------------------


    Psi4 started on: Monday, 22 July 2019 01:02PM

    Process ID: 18406
    Host:       adabbott
    PSIDATADIR: /home/adabbott/anaconda3/envs/peslearn/share/psi4
    Memory:     500.0 MiB
    Threads:    1
    
  ==> Input File <==

--------------------------------------------------------------------------
# density fitted hartree fock 
molecule h2o {
0 1
H 0.0000000000 0.0000000000 0.9000000000
H 0.0000000000 0.8927079897 -0.3249191362
O 0.0000000000 0.0000000000 0.0000000000
}

set scf_type pk
set basis 6-31g
gradient('hf')

--------------------------------------------------------------------------
gradient() will perform analytic gradient computation.

*** tstart() called on adabbott
*** at Mon Jul 22 13:02:55 2019

   => Loading Basis Set <=

    Name: 6-31G
    Role: ORBITAL
    Keyword: BASIS
    atoms 1-2 entry H          line    26 file /home/adabbott/anaconda3/envs/peslearn/share/psi4/basis/6-31g.gbs 
    atoms 3   entry O          line   117 file /home/adabbott/anaconda3/envs/peslearn/share/psi4/basis/6-31g.gbs 


         ---------------------------------------------------------
                                   SCF
               by Justin Turney, Rob Parrish, Andy Simmonett
                          and Daniel G. A. Smith
                              RHF Reference
                        1 Threads,    500 MiB Core
         ---------------------------------------------------------

  ==> Geometry <==

    Molecular point group: cs
    Full point group: Cs

    Geometry (in Angstrom), charge = 0, multiplicity = 1:

       Center              X                  Y                   Z               Mass       
    ------------   -----------------  -----------------  -----------------  -----------------
         H            0.049953650775    -0.867819948999     0.000000000000     1.007825032230
         H           -0.842754338925     0.357099187201     0.000000000000     1.007825032230
         O            0.049953650775     0.032180051001     0.000000000000    15.994914619570

  Running in cs symmetry.

  Rotational constants: A =     33.60106  B =     14.52484  C =     10.14111 [cm^-1]
  Rotational constants: A = 1007334.47597  B = 435443.64782  C = 304022.76799 [MHz]
  Nuclear repulsion =    9.509156540104946

  Charge       = 0
  Multiplicity = 1
  Electrons    = 10
  Nalpha       = 5
  Nbeta        = 5

  ==> Algorithm <==

  SCF Algorithm Type is PK.
  DIIS enabled.
  MOM disabled.
  Fractional occupation disabled.
  Guess Type is SAD.
  Energy threshold   = 1.00e-08
  Density threshold  = 1.00e-08
  Integral threshold = 0.00e+00

  ==> Primary Basis <==

  Basis Set: 6-31G
    Blend: 6-31G
    Number of shells: 9
    Number of basis function: 13
    Number of Cartesian functions: 13
    Spherical Harmonics?: false
    Max angular momentum: 1

  ==> Pre-Iterations <==

   -------------------------------------------------------
    Irrep   Nso     Nmo     Nalpha   Nbeta   Ndocc  Nsocc
   -------------------------------------------------------
     A'        11      11       0       0       0       0
     A"         2       2       0       0       0       0
   -------------------------------------------------------
    Total      13      13       5       5       5       0
   -------------------------------------------------------

  ==> Integral Setup <==

  Using in-core PK algorithm.
   Calculation information:
      Number of atoms:                   3
      Number of AO shells:               9
      Number of primitives:             22
      Number of atomic orbitals:        13
      Number of basis functions:        13

      Integral cutoff                 1.00e-12
      Number of threads:                 1

  Performing in-core PK
  Using 8372 doubles for integral storage.
  We computed 1035 shell quartets total.
  Whereas there are 1035 unique shell quartets.

  ==> DiskJK: Disk-Based J/K Matrices <==

    J tasked:                  Yes
    K tasked:                  Yes
    wK tasked:                  No
    Memory [MiB]:              375
    Schwarz Cutoff:          1E-12

    OpenMP threads:              1

  Minimum eigenvalue in the overlap matrix is 6.4445483447E-02.
  Using Symmetric Orthogonalization.

  SCF Guess: Superposition of Atomic Densities via on-the-fly atomic UHF.

  ==> Iterations <==

                        Total Energy        Delta E     RMS |[F,P]|

   @RHF iter SAD:   -75.56525198948589   -7.55653e+01   0.00000e+00 
   @RHF iter   1:   -75.91126598985728   -3.46014e-01   3.63573e-02 DIIS
   @RHF iter   2:   -75.96461542181183   -5.33494e-02   2.01102e-02 DIIS
   @RHF iter   3:   -75.98196343457560   -1.73480e-02   1.67202e-03 DIIS
   @RHF iter   4:   -75.98224487803499   -2.81443e-04   2.69536e-04 DIIS
   @RHF iter   5:   -75.98225381756907   -8.93953e-06   4.47707e-05 DIIS
   @RHF iter   6:   -75.98225416820398   -3.50635e-07   8.55358e-06 DIIS
   @RHF iter   7:   -75.98225418154341   -1.33394e-08   1.51756e-06 DIIS
   @RHF iter   8:   -75.98225418192588   -3.82471e-10   2.44892e-07 DIIS
   @RHF iter   9:   -75.98225418193242   -6.53699e-12   2.47827e-08 DIIS
   @RHF iter  10:   -75.98225418193252   -9.94760e-14   3.00592e-09 DIIS
  Energy and wave function converged.


  ==> Post-Iterations <==

    Orbital Energies [Eh]
    ---------------------

    Doubly Occupied:                                                      

       1Ap   -20.549930     2Ap    -1.368695     3Ap    -0.738798  
       4Ap    -0.554690     1App   -0.500821  

    Virtual:                                                              

       5Ap     0.212091     6Ap     0.308812     7Ap     1.100057  
       2App    1.166316     8Ap     1.197493     9Ap     1.215816  
      10Ap     1.400814    11Ap     1.681836  

    Final Occupation by Irrep:
             Ap   App 
    DOCC [     4,    1 ]

  @RHF Final Energy:   -75.98225418193252

   => Energetics <=

    Nuclear Repulsion Energy =              9.5091565401049465
    One-Electron Energy =                -123.5569539712742397
    Two-Electron Energy =                  38.0655432492367822
    Total Energy =                        -75.9822541819325181

Computation Completed


Properties will be evaluated at   0.000000,   0.000000,   0.000000 [a0]

Properties computed using the SCF density matrix

  Nuclear Dipole Moment: [e a0]
     X:    -0.7430      Y:    -0.4786      Z:     0.0000

  Electronic Dipole Moment: [e a0]
     X:    -0.0764      Y:    -0.0785      Z:     0.0000

  Dipole Moment: [e a0]
     X:    -0.8194      Y:    -0.5571      Z:     0.0000     Total:     0.9909

  Dipole Moment: [D]
     X:    -2.0827      Y:    -1.4160      Z:     0.0000     Total:     2.5185


*** tstop() called on adabbott at Mon Jul 22 13:02:56 2019
Module time:
	user time   =       0.30 seconds =       0.00 minutes
	system time =       0.01 seconds =       0.00 minutes
	total time  =          1 seconds =       0.02 minutes
Total time:
	user time   =       0.30 seconds =       0.00 minutes
	system time =       0.01 seconds =       0.00 minutes
	total time  =          1 seconds =       0.02 minutes

*** tstart() called on adabbott
*** at Mon Jul 22 13:02:56 2019


         ------------------------------------------------------------
                                   SCF GRAD                          
                          Rob Parrish, Justin Turney,                
                       Andy Simmonett, and Alex Sokolov              
         ------------------------------------------------------------

  ==> Geometry <==

    Molecular point group: cs
    Full point group: Cs

    Geometry (in Angstrom), charge = 0, multiplicity = 1:

       Center              X                  Y                   Z               Mass       
    ------------   -----------------  -----------------  -----------------  -----------------
         H            0.049953650775    -0.867819948999     0.000000000000     1.007825032230
         H           -0.842754338925     0.357099187201     0.000000000000     1.007825032230
         O            0.049953650775     0.032180051001     0.000000000000    15.994914619570

  Nuclear repulsion =    9.509156540104946

  ==> Basis Set <==

  Basis Set: 6-31G
    Blend: 6-31G
    Number of shells: 9
    Number of basis function: 13
    Number of Cartesian functions: 13
    Spherical Harmonics?: false
    Max angular momentum: 1

  ==> DirectJKGrad: Integral-Direct SCF Gradients <==

    Gradient:                    1
    J tasked:                  Yes
    K tasked:                  Yes
    wK tasked:                  No
    Integrals threads:           1
    Schwarz Cutoff:          0E+00


  -Total Gradient:
     Atom            X                  Y                   Z
    ------   -----------------  -----------------  -----------------
       1       -0.004985546330     0.067578962921     0.000000000000
       2       -0.001751792131    -0.004388669216     0.000000000000
       3        0.006737338461    -0.063190293706     0.000000000000


*** tstop() called on adabbott at Mon Jul 22 13:02:56 2019
Module time:
	user time   =       0.04 seconds =       0.00 minutes
	system time =       0.00 seconds =       0.00 minutes
	total time  =          0 seconds =       0.00 minutes
Total time:
	user time   =       0.34 seconds =       0.01 minutes
	system time =       0.01 seconds =       0.00 minutes
	total time  =          1 seconds =       0.02 minutes

    Psi4 stopped on: Monday, 22 July 2019 01:02PM
    Psi4 wall time for execution: 0:00:00.36

*** Psi4 exiting successfully. Buy a developer a beer!
