
    -----------------------------------------------------------------------
          Psi4: An Open-Source Ab Initio Electronic Structure Package
                               Psi4 1.3.2 release

                         Git: Rev {HEAD} ecbda83 


    R. M. Parrish, L. A. Burns, D. G. A. Smith, A. C. Simmonett,
    A. E. DePrince III, E. G. Hohenstein, U. Bozkaya, A. Yu. Sokolov,
    R. Di Remigio, R. M. Richard, J. F. Gonthier, A. M. James,
    H. R. McAlexander, A. Kumar, M. Saitow, X. Wang, B. P. Pritchard,
    P. Verma, H. F. Schaefer III, K. Patkowski, R. A. King, E. F. Valeev,
    F. A. Evangelista, J. M. Turney, T. D. Crawford, and C. D. Sherrill,
    J. Chem. Theory Comput. 13(7) pp 3185--3197 (2017).
    (doi: 10.1021/acs.jctc.7b00174)


                         Additional Contributions by
    P. Kraus, H. Kruse, M. H. Lechner, M. C. Schieber, R. A. Shaw,
    A. Alenaizan, R. Galvelis, Z. L. Glick, S. Lehtola, and J. P. Misiewicz

    -----------------------------------------------------------------------


    Psi4 started on: Friday, 19 July 2019 05:51PM

    Process ID: 19081
    Host:       adabbott
    PSIDATADIR: /home/adabbott/anaconda3/envs/peslearn/share/psi4
    Memory:     500.0 MiB
    Threads:    1
    
  ==> Input File <==

--------------------------------------------------------------------------
# density fitted hartree fock 
molecule h2o {
0 1
H 0.0000000000 0.0000000000 0.9833333333
H 0.0000000000 0.8936326403 -0.4487991802
O 0.0000000000 0.0000000000 0.0000000000
}

set scf_type pk
set basis 6-31g
gradient('hf')

--------------------------------------------------------------------------
gradient() will perform analytic gradient computation.

*** tstart() called on adabbott
*** at Fri Jul 19 17:51:45 2019

   => Loading Basis Set <=

    Name: 6-31G
    Role: ORBITAL
    Keyword: BASIS
    atoms 1-2 entry H          line    26 file /home/adabbott/anaconda3/envs/peslearn/share/psi4/basis/6-31g.gbs 
    atoms 3   entry O          line   117 file /home/adabbott/anaconda3/envs/peslearn/share/psi4/basis/6-31g.gbs 


         ---------------------------------------------------------
                                   SCF
               by Justin Turney, Rob Parrish, Andy Simmonett
                          and Daniel G. A. Smith
                              RHF Reference
                        1 Threads,    500 MiB Core
         ---------------------------------------------------------

  ==> Geometry <==

    Molecular point group: cs
    Full point group: Cs

    Geometry (in Angstrom), charge = 0, multiplicity = 1:

       Center              X                  Y                   Z               Mass       
    ------------   -----------------  -----------------  -----------------  -----------------
         H            0.050005391853    -0.953422172294     0.000000000000     1.007825032230
         H           -0.843627248447     0.478710341206     0.000000000000     1.007825032230
         O            0.050005391853     0.029911161006     0.000000000000    15.994914619570

  Running in cs symmetry.

  Rotational constants: A =     34.75897  B =     11.73766  C =      8.77459 [cm^-1]
  Rotational constants: A = 1042047.56753  B = 351886.33886  C = 263055.73153 [MHz]
  Nuclear repulsion =    8.852068683604671

  Charge       = 0
  Multiplicity = 1
  Electrons    = 10
  Nalpha       = 5
  Nbeta        = 5

  ==> Algorithm <==

  SCF Algorithm Type is PK.
  DIIS enabled.
  MOM disabled.
  Fractional occupation disabled.
  Guess Type is SAD.
  Energy threshold   = 1.00e-08
  Density threshold  = 1.00e-08
  Integral threshold = 0.00e+00

  ==> Primary Basis <==

  Basis Set: 6-31G
    Blend: 6-31G
    Number of shells: 9
    Number of basis function: 13
    Number of Cartesian functions: 13
    Spherical Harmonics?: false
    Max angular momentum: 1

  ==> Pre-Iterations <==

   -------------------------------------------------------
    Irrep   Nso     Nmo     Nalpha   Nbeta   Ndocc  Nsocc
   -------------------------------------------------------
     A'        11      11       0       0       0       0
     A"         2       2       0       0       0       0
   -------------------------------------------------------
    Total      13      13       5       5       5       0
   -------------------------------------------------------

  ==> Integral Setup <==

  Using in-core PK algorithm.
   Calculation information:
      Number of atoms:                   3
      Number of AO shells:               9
      Number of primitives:             22
      Number of atomic orbitals:        13
      Number of basis functions:        13

      Integral cutoff                 1.00e-12
      Number of threads:                 1

  Performing in-core PK
  Using 8372 doubles for integral storage.
  We computed 1035 shell quartets total.
  Whereas there are 1035 unique shell quartets.

  ==> DiskJK: Disk-Based J/K Matrices <==

    J tasked:                  Yes
    K tasked:                  Yes
    wK tasked:                  No
    Memory [MiB]:              375
    Schwarz Cutoff:          1E-12

    OpenMP threads:              1

  Minimum eigenvalue in the overlap matrix is 7.5939914685E-02.
  Using Symmetric Orthogonalization.

  SCF Guess: Superposition of Atomic Densities via on-the-fly atomic UHF.

  ==> Iterations <==

                        Total Energy        Delta E     RMS |[F,P]|

   @RHF iter SAD:   -75.46058883362855   -7.54606e+01   0.00000e+00 
   @RHF iter   1:   -75.90965094555199   -4.49062e-01   3.57064e-02 DIIS
   @RHF iter   2:   -75.96055457451850   -5.09036e-02   2.13550e-02 DIIS
   @RHF iter   3:   -75.98031359219308   -1.97590e-02   1.77566e-03 DIIS
   @RHF iter   4:   -75.98069490336405   -3.81311e-04   3.56460e-04 DIIS
   @RHF iter   5:   -75.98071226994809   -1.73666e-05   5.73972e-05 DIIS
   @RHF iter   6:   -75.98071293116837   -6.61220e-07   1.44117e-05 DIIS
   @RHF iter   7:   -75.98071297486310   -4.36947e-08   2.34876e-06 DIIS
   @RHF iter   8:   -75.98071297584262   -9.79526e-10   3.39393e-07 DIIS
   @RHF iter   9:   -75.98071297585373   -1.11129e-11   3.47746e-08 DIIS
   @RHF iter  10:   -75.98071297585395   -2.13163e-13   3.66354e-09 DIIS
  Energy and wave function converged.


  ==> Post-Iterations <==

    Orbital Energies [Eh]
    ---------------------

    Doubly Occupied:                                                      

       1Ap   -20.556893     2Ap    -1.325876     3Ap    -0.708879  
       4Ap    -0.532489     1App   -0.492818  

    Virtual:                                                              

       5Ap     0.195611     6Ap     0.293284     7Ap     1.078559  
       8Ap     1.118871     2App    1.169750     9Ap     1.207527  
      10Ap     1.390723    11Ap     1.659124  

    Final Occupation by Irrep:
             Ap   App 
    DOCC [     4,    1 ]

  @RHF Final Energy:   -75.98071297585395

   => Energetics <=

    Nuclear Repulsion Energy =              8.8520686836046707
    One-Electron Energy =                -122.4316515433937695
    Two-Electron Energy =                  37.5988698839351514
    Total Energy =                        -75.9807129758539475

Computation Completed


Properties will be evaluated at   0.000000,   0.000000,   0.000000 [a0]

Properties computed using the SCF density matrix

  Nuclear Dipole Moment: [e a0]
     X:    -0.7438      Y:    -0.4449      Z:     0.0000

  Electronic Dipole Moment: [e a0]
     X:    -0.0679      Y:    -0.0496      Z:     0.0000

  Dipole Moment: [e a0]
     X:    -0.8117      Y:    -0.4945      Z:     0.0000     Total:     0.9505

  Dipole Moment: [D]
     X:    -2.0631      Y:    -1.2570      Z:     0.0000     Total:     2.4159


*** tstop() called on adabbott at Fri Jul 19 17:51:46 2019
Module time:
	user time   =       0.33 seconds =       0.01 minutes
	system time =       0.00 seconds =       0.00 minutes
	total time  =          1 seconds =       0.02 minutes
Total time:
	user time   =       0.33 seconds =       0.01 minutes
	system time =       0.00 seconds =       0.00 minutes
	total time  =          1 seconds =       0.02 minutes

*** tstart() called on adabbott
*** at Fri Jul 19 17:51:46 2019


         ------------------------------------------------------------
                                   SCF GRAD                          
                          Rob Parrish, Justin Turney,                
                       Andy Simmonett, and Alex Sokolov              
         ------------------------------------------------------------

  ==> Geometry <==

    Molecular point group: cs
    Full point group: Cs

    Geometry (in Angstrom), charge = 0, multiplicity = 1:

       Center              X                  Y                   Z               Mass       
    ------------   -----------------  -----------------  -----------------  -----------------
         H            0.050005391853    -0.953422172294     0.000000000000     1.007825032230
         H           -0.843627248447     0.478710341206     0.000000000000     1.007825032230
         O            0.050005391853     0.029911161006     0.000000000000    15.994914619570

  Nuclear repulsion =    8.852068683604671

  ==> Basis Set <==

  Basis Set: 6-31G
    Blend: 6-31G
    Number of shells: 9
    Number of basis function: 13
    Number of Cartesian functions: 13
    Spherical Harmonics?: false
    Max angular momentum: 1

  ==> DirectJKGrad: Integral-Direct SCF Gradients <==

    Gradient:                    1
    J tasked:                  Yes
    K tasked:                  Yes
    wK tasked:                  No
    Integrals threads:           1
    Schwarz Cutoff:          0E+00


  -Total Gradient:
     Atom            X                  Y                   Z
    ------   -----------------  -----------------  -----------------
       1        0.010934482819    -0.035848050379     0.000000000000
       2       -0.039962436875     0.032101950864     0.000000000000
       3        0.029027954056     0.003746099515     0.000000000000


*** tstop() called on adabbott at Fri Jul 19 17:51:46 2019
Module time:
	user time   =       0.04 seconds =       0.00 minutes
	system time =       0.01 seconds =       0.00 minutes
	total time  =          0 seconds =       0.00 minutes
Total time:
	user time   =       0.37 seconds =       0.01 minutes
	system time =       0.01 seconds =       0.00 minutes
	total time  =          1 seconds =       0.02 minutes

    Psi4 stopped on: Friday, 19 July 2019 05:51PM
    Psi4 wall time for execution: 0:00:00.38

*** Psi4 exiting successfully. Buy a developer a beer!
