
    -----------------------------------------------------------------------
          Psi4: An Open-Source Ab Initio Electronic Structure Package
                               Psi4 1.3.2 release

                         Git: Rev {HEAD} ecbda83 


    R. M. Parrish, L. A. Burns, D. G. A. Smith, A. C. Simmonett,
    A. E. DePrince III, E. G. Hohenstein, U. Bozkaya, A. Yu. Sokolov,
    R. Di Remigio, R. M. Richard, J. F. Gonthier, A. M. James,
    H. R. McAlexander, A. Kumar, M. Saitow, X. Wang, B. P. Pritchard,
    P. Verma, H. F. Schaefer III, K. Patkowski, R. A. King, E. F. Valeev,
    F. A. Evangelista, J. M. Turney, T. D. Crawford, and C. D. Sherrill,
    J. Chem. Theory Comput. 13(7) pp 3185--3197 (2017).
    (doi: 10.1021/acs.jctc.7b00174)


                         Additional Contributions by
    P. Kraus, H. Kruse, M. H. Lechner, M. C. Schieber, R. A. Shaw,
    A. Alenaizan, R. Galvelis, Z. L. Glick, S. Lehtola, and J. P. Misiewicz

    -----------------------------------------------------------------------


    Psi4 started on: Friday, 19 July 2019 03:40PM

    Process ID: 14208
    Host:       adabbott
    PSIDATADIR: /home/adabbott/anaconda3/envs/peslearn/share/psi4
    Memory:     500.0 MiB
    Threads:    1
    
  ==> Input File <==

--------------------------------------------------------------------------
# density fitted hartree fock 
molecule h2o {
0 1
O
H 1 0.96
H 1 0.96 2 104.5
}

set basis 6-31g
set scf_type pk
optimize('hf')
--------------------------------------------------------------------------
gradient() will perform analytic gradient computation.

*** tstart() called on adabbott
*** at Fri Jul 19 15:40:53 2019

   => Loading Basis Set <=

    Name: 6-31G
    Role: ORBITAL
    Keyword: BASIS
    atoms 1   entry O          line   117 file /home/adabbott/anaconda3/envs/peslearn/share/psi4/basis/6-31g.gbs 
    atoms 2-3 entry H          line    26 file /home/adabbott/anaconda3/envs/peslearn/share/psi4/basis/6-31g.gbs 


         ---------------------------------------------------------
                                   SCF
               by Justin Turney, Rob Parrish, Andy Simmonett
                          and Daniel G. A. Smith
                              RHF Reference
                        1 Threads,    500 MiB Core
         ---------------------------------------------------------

  ==> Geometry <==

    Molecular point group: c2v
    Full point group: C2v

    Geometry (in Angstrom), charge = 0, multiplicity = 1:

       Center              X                  Y                   Z               Mass       
    ------------   -----------------  -----------------  -----------------  -----------------
         O            0.000000000000     0.000000000000    -0.065775570547    15.994914619570
         H            0.000000000000    -0.759061990794     0.521953018286     1.007825032230
         H            0.000000000000     0.759061990794     0.521953018286     1.007825032230

  Running in c2v symmetry.

  Rotational constants: A =     27.26297  B =     14.51533  C =      9.47217 [cm^-1]
  Rotational constants: A = 817323.21126  B = 435158.60141  C = 283968.37536 [MHz]
  Nuclear repulsion =    9.168193296424349

  Charge       = 0
  Multiplicity = 1
  Electrons    = 10
  Nalpha       = 5
  Nbeta        = 5

  ==> Algorithm <==

  SCF Algorithm Type is PK.
  DIIS enabled.
  MOM disabled.
  Fractional occupation disabled.
  Guess Type is SAD.
  Energy threshold   = 1.00e-08
  Density threshold  = 1.00e-08
  Integral threshold = 0.00e+00

  ==> Primary Basis <==

  Basis Set: 6-31G
    Blend: 6-31G
    Number of shells: 9
    Number of basis function: 13
    Number of Cartesian functions: 13
    Spherical Harmonics?: false
    Max angular momentum: 1

  ==> Pre-Iterations <==

   -------------------------------------------------------
    Irrep   Nso     Nmo     Nalpha   Nbeta   Ndocc  Nsocc
   -------------------------------------------------------
     A1         7       7       0       0       0       0
     A2         0       0       0       0       0       0
     B1         2       2       0       0       0       0
     B2         4       4       0       0       0       0
   -------------------------------------------------------
    Total      13      13       5       5       5       0
   -------------------------------------------------------

  ==> Integral Setup <==

  Using in-core PK algorithm.
   Calculation information:
      Number of atoms:                   3
      Number of AO shells:               9
      Number of primitives:             22
      Number of atomic orbitals:        13
      Number of basis functions:        13

      Integral cutoff                 1.00e-12
      Number of threads:                 1

  Performing in-core PK
  Using 8372 doubles for integral storage.
  We computed 1035 shell quartets total.
  Whereas there are 1035 unique shell quartets.

  ==> DiskJK: Disk-Based J/K Matrices <==

    J tasked:                  Yes
    K tasked:                  Yes
    wK tasked:                  No
    Memory [MiB]:              375
    Schwarz Cutoff:          1E-12

    OpenMP threads:              1

  Minimum eigenvalue in the overlap matrix is 6.8136511557E-02.
  Using Symmetric Orthogonalization.

  SCF Guess: Superposition of Atomic Densities via on-the-fly atomic UHF.

  ==> Iterations <==

                        Total Energy        Delta E     RMS |[F,P]|

   @RHF iter SAD:   -75.52056463072991   -7.55206e+01   0.00000e+00 
   @RHF iter   1:   -75.91013434841088   -3.89570e-01   4.87502e-02 DIIS
   @RHF iter   2:   -75.96451506204393   -5.43807e-02   2.83471e-02 DIIS
   @RHF iter   3:   -75.98360471059431   -1.90896e-02   2.32657e-03 DIIS
   @RHF iter   4:   -75.98392895290317   -3.24242e-04   4.18059e-04 DIIS
   @RHF iter   5:   -75.98393997167196   -1.10188e-05   6.00084e-05 DIIS
   @RHF iter   6:   -75.98394028731293   -3.15641e-07   1.07198e-05 DIIS
   @RHF iter   7:   -75.98394029825455   -1.09416e-08   2.19056e-06 DIIS
   @RHF iter   8:   -75.98394029873860   -4.84050e-10   4.10025e-07 DIIS
   @RHF iter   9:   -75.98394029875071   -1.21076e-11   3.96339e-08 DIIS
   @RHF iter  10:   -75.98394029875087   -1.56319e-13   3.61052e-09 DIIS
  Energy and wave function converged.


  ==> Post-Iterations <==

    Orbital Energies [Eh]
    ---------------------

    Doubly Occupied:                                                      

       1A1   -20.560950     2A1    -1.354919     1B2    -0.708629  
       3A1    -0.560244     1B1    -0.501236  

    Virtual:                                                              

       4A1     0.203128     2B2     0.299117     3B2     1.056521  
       2B1     1.164454     5A1     1.183781     6A1     1.215706  
       4B2     1.378629     7A1     1.696036  

    Final Occupation by Irrep:
             A1    A2    B1    B2 
    DOCC [     3,    0,    1,    1 ]

  @RHF Final Energy:   -75.98394029875087

   => Energetics <=

    Nuclear Repulsion Energy =              9.1681932964243487
    One-Electron Energy =                -122.9323117955620290
    Two-Electron Energy =                  37.7801782003868212
    Total Energy =                        -75.9839402987508663

Computation Completed


Properties will be evaluated at   0.000000,   0.000000,   0.000000 [a0]

Properties computed using the SCF density matrix

  Nuclear Dipole Moment: [e a0]
     X:     0.0000      Y:     0.0000      Z:     0.9783

  Electronic Dipole Moment: [e a0]
     X:     0.0000      Y:     0.0000      Z:     0.0570

  Dipole Moment: [e a0]
     X:     0.0000      Y:     0.0000      Z:     1.0353     Total:     1.0353

  Dipole Moment: [D]
     X:     0.0000      Y:     0.0000      Z:     2.6315     Total:     2.6315


*** tstop() called on adabbott at Fri Jul 19 15:40:54 2019
Module time:
	user time   =       0.31 seconds =       0.01 minutes
	system time =       0.00 seconds =       0.00 minutes
	total time  =          1 seconds =       0.02 minutes
Total time:
	user time   =       0.31 seconds =       0.01 minutes
	system time =       0.00 seconds =       0.00 minutes
	total time  =          1 seconds =       0.02 minutes

*** tstart() called on adabbott
*** at Fri Jul 19 15:40:54 2019


         ------------------------------------------------------------
                                   SCF GRAD                          
                          Rob Parrish, Justin Turney,                
                       Andy Simmonett, and Alex Sokolov              
         ------------------------------------------------------------

  ==> Geometry <==

    Molecular point group: c2v
    Full point group: C2v

    Geometry (in Angstrom), charge = 0, multiplicity = 1:

       Center              X                  Y                   Z               Mass       
    ------------   -----------------  -----------------  -----------------  -----------------
         O            0.000000000000     0.000000000000    -0.065775570547    15.994914619570
         H            0.000000000000    -0.759061990794     0.521953018286     1.007825032230
         H            0.000000000000     0.759061990794     0.521953018286     1.007825032230

  Nuclear repulsion =    9.168193296424349

  ==> Basis Set <==

  Basis Set: 6-31G
    Blend: 6-31G
    Number of shells: 9
    Number of basis function: 13
    Number of Cartesian functions: 13
    Spherical Harmonics?: false
    Max angular momentum: 1

  ==> DirectJKGrad: Integral-Direct SCF Gradients <==

    Gradient:                    1
    J tasked:                  Yes
    K tasked:                  Yes
    wK tasked:                  No
    Integrals threads:           1
    Schwarz Cutoff:          0E+00


  -Total Gradient:
     Atom            X                  Y                   Z
    ------   -----------------  -----------------  -----------------
       1        0.000000000000     0.000000000000    -0.026266912221
       2       -0.000000000000     0.002405059631     0.013133456110
       3        0.000000000000    -0.002405059631     0.013133456110


*** tstop() called on adabbott at Fri Jul 19 15:40:54 2019
Module time:
	user time   =       0.04 seconds =       0.00 minutes
	system time =       0.00 seconds =       0.00 minutes
	total time  =          0 seconds =       0.00 minutes
Total time:
	user time   =       0.36 seconds =       0.01 minutes
	system time =       0.00 seconds =       0.00 minutes
	total time  =          1 seconds =       0.02 minutes

			-----------------------------------------
			 OPTKING 2.0: for geometry optimizations 
			  - R.A. King,  Bethel University        
			-----------------------------------------

	Internal coordinates to be generated automatically.
	Detected frag 1 with atoms:  1 2 3
	---Fragment 1 Bond Connectivity---
	 1 : 2 3
	 2 : 1
	 3 : 1

	---Fragment 1 Geometry and Gradient---
	 O           0.0000000000        0.0000000000       -0.1242978141
	 H           0.0000000000       -1.4344192748        0.9863482549
	 H           0.0000000000        1.4344192748        0.9863482549
	             0.0000000000        0.0000000000       -0.0262669122
	            -0.0000000000        0.0024050596        0.0131334561
	             0.0000000000       -0.0024050596        0.0131334561

	Previous optimization step data not found.  Starting new optimization.

	---Fragment 1 Intrafragment Coordinates---
	 - Coordinate -           - BOHR/RAD -       - ANG/DEG -
	 R(1,2)           =         1.814137	       0.960000
	 R(1,3)           =         1.814137	       0.960000
	 B(2,1,3)         =         1.823869	     104.500000

	Current energy   :       -75.9839402988

	Generating empirical Hessian (Schlegel '84) for each fragment.
	Taking RFO optimization step.
	Going to follow RFO solution 1.
	Using RFO vector 1.
	Norm of target step-size    0.13290
	Projected energy change by RFO approximation:        -0.0026456488

	Back-transformation to cartesian coordinates...
	Successfully converged to displaced geometry.

	--- Internal Coordinate Step in ANG or DEG, aJ/ANG or AJ/DEG ---
	 ---------------------------------------------------------------------------
	   Coordinate                Previous        Force       Change         New 
	   ----------                --------       ------       ------       ------
	    1 R(1,2)          =      0.960000    -0.050576    -0.005825     0.954175
	    2 R(1,3)          =      0.960000    -0.050576    -0.005825     0.954175
	    3 B(2,1,3)        =    104.500000     0.001637     7.562152   112.062152
	 ---------------------------------------------------------------------------
	Successfully symmetrized geometry.

  ==> Convergence Check <==

  Measures of convergence in internal coordinates in au.
  Criteria marked as inactive (o), active & met (*), and active & unmet ( ).
  --------------------------------------------------------------------------------------------- ~
   Step     Total Energy     Delta E     MAX Force     RMS Force      MAX Disp      RMS Disp    ~
  --------------------------------------------------------------------------------------------- ~
    Convergence Criteria    1.00e-06 *    3.00e-04 *             o    1.20e-03 *             o  ~
  --------------------------------------------------------------------------------------------- ~
      1     -75.98394030   -7.60e+01      2.15e-02      1.34e-02 o    1.32e-01      7.67e-02 o  ~
  ---------------------------------------------------------------------------------------------

	Writing optimization data to binary file.
	Structure for next step:
	Cartesian Geometry (in Angstrom)
	    O     0.0000000000   0.0000000000  -0.0293824183
	    H     0.0000000000  -0.7913363492   0.5037564402
	    H     0.0000000000   0.7913363492   0.5037564402
			--------------------------
			 OPTKING Finished Execution 
			--------------------------

    Structure for next step:
    Molecular point group: c2v
    Full point group: C2v

    Geometry (in Angstrom), charge = 0, multiplicity = 1:

    O       
    H             1    0.954175
    H             1    0.954175      2  112.062152

gradient() will perform analytic gradient computation.

*** tstart() called on adabbott
*** at Fri Jul 19 15:40:54 2019

   => Loading Basis Set <=

    Name: 6-31G
    Role: ORBITAL
    Keyword: BASIS
    atoms 1   entry O          line   117 file /home/adabbott/anaconda3/envs/peslearn/share/psi4/basis/6-31g.gbs 
    atoms 2-3 entry H          line    26 file /home/adabbott/anaconda3/envs/peslearn/share/psi4/basis/6-31g.gbs 


         ---------------------------------------------------------
                                   SCF
               by Justin Turney, Rob Parrish, Andy Simmonett
                          and Daniel G. A. Smith
                              RHF Reference
                        1 Threads,    500 MiB Core
         ---------------------------------------------------------

  ==> Geometry <==

    Molecular point group: c2v
    Full point group: C2v

    Geometry (in Angstrom), charge = 0, multiplicity = 1:

       Center              X                  Y                   Z               Mass       
    ------------   -----------------  -----------------  -----------------  -----------------
         O            0.000000000000     0.000000000000    -0.059666168027    15.994914619570
         H            0.000000000000    -0.791336352339     0.473472692558     1.007825032230
         H            0.000000000000     0.791336352339     0.473472692558     1.007825032230

  Running in c2v symmetry.

  Rotational constants: A =     33.13188  B =     13.35547  C =      9.51854 [cm^-1]
  Rotational constants: A = 993268.78399  B = 400386.87178  C = 285358.71082 [MHz]
  Nuclear repulsion =    9.207816807892861

  Charge       = 0
  Multiplicity = 1
  Electrons    = 10
  Nalpha       = 5
  Nbeta        = 5

  ==> Algorithm <==

  SCF Algorithm Type is PK.
  DIIS enabled.
  MOM disabled.
  Fractional occupation disabled.
  Guess Type is READ.
  Energy threshold   = 1.00e-08
  Density threshold  = 1.00e-08
  Integral threshold = 0.00e+00

  ==> Primary Basis <==

  Basis Set: 6-31G
    Blend: 6-31G
    Number of shells: 9
    Number of basis function: 13
    Number of Cartesian functions: 13
    Spherical Harmonics?: false
    Max angular momentum: 1

   => Loading Basis Set <=

    Name: 6-31G
    Role: ORBITAL
    Keyword: BASIS
    atoms 1   entry O          line   117 file /home/adabbott/anaconda3/envs/peslearn/share/psi4/basis/6-31g.gbs 
    atoms 2-3 entry H          line    26 file /home/adabbott/anaconda3/envs/peslearn/share/psi4/basis/6-31g.gbs 

  Reading orbitals from file 180, no projection.

  ==> Pre-Iterations <==

   -------------------------------------------------------
    Irrep   Nso     Nmo     Nalpha   Nbeta   Ndocc  Nsocc
   -------------------------------------------------------
     A1         7       7       0       0       0       0
     A2         0       0       0       0       0       0
     B1         2       2       0       0       0       0
     B2         4       4       0       0       0       0
   -------------------------------------------------------
    Total      13      13       5       5       5       0
   -------------------------------------------------------

  ==> Integral Setup <==

  Using in-core PK algorithm.
   Calculation information:
      Number of atoms:                   3
      Number of AO shells:               9
      Number of primitives:             22
      Number of atomic orbitals:        13
      Number of basis functions:        13

      Integral cutoff                 1.00e-12
      Number of threads:                 1

  Performing in-core PK
  Using 8372 doubles for integral storage.
  We computed 1035 shell quartets total.
  Whereas there are 1035 unique shell quartets.

  ==> DiskJK: Disk-Based J/K Matrices <==

    J tasked:                  Yes
    K tasked:                  Yes
    wK tasked:                  No
    Memory [MiB]:              375
    Schwarz Cutoff:          1E-12

    OpenMP threads:              1

  Minimum eigenvalue in the overlap matrix is 6.9408507487E-02.
  Using Symmetric Orthogonalization.

  SCF Guess: Orbitals guess was supplied from a previous computation.

  ==> Iterations <==

                        Total Energy        Delta E     RMS |[F,P]|

   @RHF iter   0:   -75.99665717972357   -7.59967e+01   3.88826e-03 
   @RHF iter   1:   -75.98522716198531    1.14300e-02   1.04690e-03 DIIS
   @RHF iter   2:   -75.98528875420260   -6.15922e-05   3.99538e-04 DIIS
   @RHF iter   3:   -75.98530012723330   -1.13730e-05   2.28187e-04 DIIS
   @RHF iter   4:   -75.98530325658281   -3.12935e-06   3.54481e-05 DIIS
   @RHF iter   5:   -75.98530340648949   -1.49907e-07   2.47315e-06 DIIS
   @RHF iter   6:   -75.98530340690735   -4.17856e-10   3.96110e-07 DIIS
   @RHF iter   7:   -75.98530340691660   -9.25127e-12   4.88142e-08 DIIS
   @RHF iter   8:   -75.98530340691674   -1.42109e-13   6.46531e-09 DIIS
  Energy and wave function converged.


  ==> Post-Iterations <==

    Orbital Energies [Eh]
    ---------------------

    Doubly Occupied:                                                      

       1A1   -20.553931     2A1    -1.349536     1B2    -0.724470  
       3A1    -0.546590     1B1    -0.497732  

    Virtual:                                                              

       4A1     0.205902     2B2     0.301850     3B2     1.106913  
       5A1     1.151819     2B1     1.167414     6A1     1.205003  
       4B2     1.388189     7A1     1.674444  

    Final Occupation by Irrep:
             A1    A2    B1    B2 
    DOCC [     3,    0,    1,    1 ]

  @RHF Final Energy:   -75.98530340691674

   => Energetics <=

    Nuclear Repulsion Energy =              9.2078168078928613
    One-Electron Energy =                -123.0417242982912995
    Two-Electron Energy =                  37.8486040834817103
    Total Energy =                        -75.9853034069167279

Computation Completed


Properties will be evaluated at   0.000000,   0.000000,   0.000000 [a0]

Properties computed using the SCF density matrix

  Nuclear Dipole Moment: [e a0]
     X:     0.0000      Y:     0.0000      Z:     0.8874

  Electronic Dipole Moment: [e a0]
     X:     0.0000      Y:     0.0000      Z:     0.0932

  Dipole Moment: [e a0]
     X:     0.0000      Y:     0.0000      Z:     0.9807     Total:     0.9807

  Dipole Moment: [D]
     X:     0.0000      Y:     0.0000      Z:     2.4926     Total:     2.4926


*** tstop() called on adabbott at Fri Jul 19 15:40:54 2019
Module time:
	user time   =       0.13 seconds =       0.00 minutes
	system time =       0.01 seconds =       0.00 minutes
	total time  =          0 seconds =       0.00 minutes
Total time:
	user time   =       0.49 seconds =       0.01 minutes
	system time =       0.01 seconds =       0.00 minutes
	total time  =          1 seconds =       0.02 minutes

*** tstart() called on adabbott
*** at Fri Jul 19 15:40:54 2019


         ------------------------------------------------------------
                                   SCF GRAD                          
                          Rob Parrish, Justin Turney,                
                       Andy Simmonett, and Alex Sokolov              
         ------------------------------------------------------------

  ==> Geometry <==

    Molecular point group: c2v
    Full point group: C2v

    Geometry (in Angstrom), charge = 0, multiplicity = 1:

       Center              X                  Y                   Z               Mass       
    ------------   -----------------  -----------------  -----------------  -----------------
         O            0.000000000000     0.000000000000    -0.059666168027    15.994914619570
         H            0.000000000000    -0.791336352339     0.473472692558     1.007825032230
         H            0.000000000000     0.791336352339     0.473472692558     1.007825032230

  Nuclear repulsion =    9.207816807892861

  ==> Basis Set <==

  Basis Set: 6-31G
    Blend: 6-31G
    Number of shells: 9
    Number of basis function: 13
    Number of Cartesian functions: 13
    Spherical Harmonics?: false
    Max angular momentum: 1

  ==> DirectJKGrad: Integral-Direct SCF Gradients <==

    Gradient:                    1
    J tasked:                  Yes
    K tasked:                  Yes
    wK tasked:                  No
    Integrals threads:           1
    Schwarz Cutoff:          0E+00


  -Total Gradient:
     Atom            X                  Y                   Z
    ------   -----------------  -----------------  -----------------
       1        0.000000000000     0.000000000000    -0.003853893118
       2        0.000000000000    -0.005079294627     0.001926946559
       3       -0.000000000000     0.005079294627     0.001926946559


*** tstop() called on adabbott at Fri Jul 19 15:40:54 2019
Module time:
	user time   =       0.04 seconds =       0.00 minutes
	system time =       0.00 seconds =       0.00 minutes
	total time  =          0 seconds =       0.00 minutes
Total time:
	user time   =       0.53 seconds =       0.01 minutes
	system time =       0.01 seconds =       0.00 minutes
	total time  =          1 seconds =       0.02 minutes

			-----------------------------------------
			 OPTKING 2.0: for geometry optimizations 
			  - R.A. King,  Bethel University        
			-----------------------------------------

	Previous internal coordinate definitions found.
	---Fragment 1 Geometry and Gradient---
	 O           0.0000000000        0.0000000000       -0.1127527165
	 H           0.0000000000       -1.4954089790        0.8947337168
	 H           0.0000000000        1.4954089790        0.8947337168
	             0.0000000000        0.0000000000       -0.0038538931
	             0.0000000000       -0.0050792946        0.0019269466
	            -0.0000000000        0.0050792946        0.0019269466

	---Fragment 1 Intrafragment Coordinates---
	 - Coordinate -           - BOHR/RAD -       - ANG/DEG -
	 R(1,2)           =         1.803130	       0.954175
	 R(1,3)           =         1.803130	       0.954175
	 B(2,1,3)         =         1.955854	     112.062152

	Current energy   :       -75.9853034069

	Energy change for the previous step:
		Projected    :        -0.0026456488
		Actual       :        -0.0013631082

	Performing BFGS update.
	Previous computed or guess Hessian on step 1.
	Steps to be used in Hessian update: 1
	Taking RFO optimization step.
	Going to follow RFO solution 1.
	Using RFO vector 1.
	Norm of target step-size    0.01561
	Projected energy change by RFO approximation:        -0.0000215063

	Back-transformation to cartesian coordinates...
	Successfully converged to displaced geometry.

	--- Internal Coordinate Step in ANG or DEG, aJ/ANG or AJ/DEG ---
	 ---------------------------------------------------------------------------
	   Coordinate                Previous        Force       Change         New 
	   ----------                --------       ------       ------       ------
	    1 R(1,2)          =      0.954175    -0.043576    -0.004974     0.949201
	    2 R(1,3)          =      0.954175    -0.043576    -0.004974     0.949201
	    3 B(2,1,3)        =    112.062152    -0.000170    -0.469348   111.592804
	 ---------------------------------------------------------------------------
	Successfully symmetrized geometry.

  ==> Convergence Check <==

  Measures of convergence in internal coordinates in au.
  Criteria marked as inactive (o), active & met (*), and active & unmet ( ).
  ---------------------------------------------------------------------------------------------
   Step     Total Energy     Delta E     MAX Force     RMS Force      MAX Disp      RMS Disp   
  ---------------------------------------------------------------------------------------------
    Convergence Criteria    1.00e-06 *    3.00e-04 *             o    1.20e-03 *             o
  ---------------------------------------------------------------------------------------------
      2     -75.98530341   -1.36e-03      5.29e-03      4.51e-03 o    9.40e-03      9.02e-03 o  ~
  ---------------------------------------------------------------------------------------------

	Writing optimization data to binary file.
	Structure for next step:
	Cartesian Geometry (in Angstrom)
	    O     0.0000000000   0.0000000000  -0.0599598184
	    H     0.0000000000  -0.7850321042   0.4736195160
	    H     0.0000000000   0.7850321042   0.4736195160
			--------------------------
			 OPTKING Finished Execution 
			--------------------------

    Structure for next step:
    Molecular point group: c2v
    Full point group: C2v

    Geometry (in Angstrom), charge = 0, multiplicity = 1:

    O       
    H             1    0.949201
    H             1    0.949201      2  111.592804

gradient() will perform analytic gradient computation.

*** tstart() called on adabbott
*** at Fri Jul 19 15:40:54 2019

   => Loading Basis Set <=

    Name: 6-31G
    Role: ORBITAL
    Keyword: BASIS
    atoms 1   entry O          line   117 file /home/adabbott/anaconda3/envs/peslearn/share/psi4/basis/6-31g.gbs 
    atoms 2-3 entry H          line    26 file /home/adabbott/anaconda3/envs/peslearn/share/psi4/basis/6-31g.gbs 


         ---------------------------------------------------------
                                   SCF
               by Justin Turney, Rob Parrish, Andy Simmonett
                          and Daniel G. A. Smith
                              RHF Reference
                        1 Threads,    500 MiB Core
         ---------------------------------------------------------

  ==> Geometry <==

    Molecular point group: c2v
    Full point group: C2v

    Geometry (in Angstrom), charge = 0, multiplicity = 1:

       Center              X                  Y                   Z               Mass       
    ------------   -----------------  -----------------  -----------------  -----------------
         O            0.000000000000     0.000000000000    -0.059715463841    15.994914619570
         H            0.000000000000    -0.785032107297     0.473863872729     1.007825032230
         H            0.000000000000     0.785032107297     0.473863872729     1.007825032230

  Running in c2v symmetry.

  Rotational constants: A =     33.07720  B =     13.57083  C =      9.62281 [cm^-1]
  Rotational constants: A = 991629.55086  B = 406843.35182  C = 288484.59592 [MHz]
  Nuclear repulsion =    9.257003295519464

  Charge       = 0
  Multiplicity = 1
  Electrons    = 10
  Nalpha       = 5
  Nbeta        = 5

  ==> Algorithm <==

  SCF Algorithm Type is PK.
  DIIS enabled.
  MOM disabled.
  Fractional occupation disabled.
  Guess Type is READ.
  Energy threshold   = 1.00e-08
  Density threshold  = 1.00e-08
  Integral threshold = 0.00e+00

  ==> Primary Basis <==

  Basis Set: 6-31G
    Blend: 6-31G
    Number of shells: 9
    Number of basis function: 13
    Number of Cartesian functions: 13
    Spherical Harmonics?: false
    Max angular momentum: 1

   => Loading Basis Set <=

    Name: 6-31G
    Role: ORBITAL
    Keyword: BASIS
    atoms 1   entry O          line   117 file /home/adabbott/anaconda3/envs/peslearn/share/psi4/basis/6-31g.gbs 
    atoms 2-3 entry H          line    26 file /home/adabbott/anaconda3/envs/peslearn/share/psi4/basis/6-31g.gbs 

  Reading orbitals from file 180, no projection.

  ==> Pre-Iterations <==

   -------------------------------------------------------
    Irrep   Nso     Nmo     Nalpha   Nbeta   Ndocc  Nsocc
   -------------------------------------------------------
     A1         7       7       0       0       0       0
     A2         0       0       0       0       0       0
     B1         2       2       0       0       0       0
     B2         4       4       0       0       0       0
   -------------------------------------------------------
    Total      13      13       5       5       5       0
   -------------------------------------------------------

  ==> Integral Setup <==

  Using in-core PK algorithm.
   Calculation information:
      Number of atoms:                   3
      Number of AO shells:               9
      Number of primitives:             22
      Number of atomic orbitals:        13
      Number of basis functions:        13

      Integral cutoff                 1.00e-12
      Number of threads:                 1

  Performing in-core PK
  Using 8372 doubles for integral storage.
  We computed 1035 shell quartets total.
  Whereas there are 1035 unique shell quartets.

  ==> DiskJK: Disk-Based J/K Matrices <==

    J tasked:                  Yes
    K tasked:                  Yes
    wK tasked:                  No
    Memory [MiB]:              375
    Schwarz Cutoff:          1E-12

    OpenMP threads:              1

  Minimum eigenvalue in the overlap matrix is 6.8587631611E-02.
  Using Symmetric Orthogonalization.

  SCF Guess: Orbitals guess was supplied from a previous computation.

  ==> Iterations <==

                        Total Energy        Delta E     RMS |[F,P]|

   @RHF iter   0:   -75.99077453453401   -7.59908e+01   1.34713e-03 
   @RHF iter   1:   -75.98535754398605    5.41699e-03   1.64317e-04 DIIS
   @RHF iter   2:   -75.98535865852378   -1.11454e-06   6.08455e-05 DIIS
   @RHF iter   3:   -75.98535876102073   -1.02497e-07   2.22364e-05 DIIS
   @RHF iter   4:   -75.98535878101427   -1.99935e-08   3.45674e-06 DIIS
   @RHF iter   5:   -75.98535878208277   -1.06850e-09   5.16903e-07 DIIS
   @RHF iter   6:   -75.98535878210832   -2.55511e-11   1.15418e-07 DIIS
   @RHF iter   7:   -75.98535878210956   -1.23634e-12   1.24499e-08 DIIS
   @RHF iter   8:   -75.98535878210956    0.00000e+00   1.50426e-09 DIIS
  Energy and wave function converged.


  ==> Post-Iterations <==

    Orbital Energies [Eh]
    ---------------------

    Doubly Occupied:                                                      

       1A1   -20.553366     2A1    -1.352708     1B2    -0.726711  
       3A1    -0.548209     1B1    -0.498303  

    Virtual:                                                              

       4A1     0.207099     2B2     0.303019     3B2     1.105993  
       5A1     1.161480     2B1     1.167181     6A1     1.204564  
       4B2     1.389124     7A1     1.676022  

    Final Occupation by Irrep:
             A1    A2    B1    B2 
    DOCC [     3,    0,    1,    1 ]

  @RHF Final Energy:   -75.98535878210956

   => Energetics <=

    Nuclear Repulsion Energy =              9.2570032955194641
    One-Electron Energy =                -123.1261305834269422
    Two-Electron Energy =                  37.8837685057979101
    Total Energy =                        -75.9853587821095573

Computation Completed


Properties will be evaluated at   0.000000,   0.000000,   0.000000 [a0]

Properties computed using the SCF density matrix

  Nuclear Dipole Moment: [e a0]
     X:     0.0000      Y:     0.0000      Z:     0.8882

  Electronic Dipole Moment: [e a0]
     X:     0.0000      Y:     0.0000      Z:     0.0952

  Dipole Moment: [e a0]
     X:     0.0000      Y:     0.0000      Z:     0.9834     Total:     0.9834

  Dipole Moment: [D]
     X:     0.0000      Y:     0.0000      Z:     2.4995     Total:     2.4995


*** tstop() called on adabbott at Fri Jul 19 15:40:54 2019
Module time:
	user time   =       0.15 seconds =       0.00 minutes
	system time =       0.00 seconds =       0.00 minutes
	total time  =          0 seconds =       0.00 minutes
Total time:
	user time   =       0.69 seconds =       0.01 minutes
	system time =       0.01 seconds =       0.00 minutes
	total time  =          1 seconds =       0.02 minutes

*** tstart() called on adabbott
*** at Fri Jul 19 15:40:54 2019


         ------------------------------------------------------------
                                   SCF GRAD                          
                          Rob Parrish, Justin Turney,                
                       Andy Simmonett, and Alex Sokolov              
         ------------------------------------------------------------

  ==> Geometry <==

    Molecular point group: c2v
    Full point group: C2v

    Geometry (in Angstrom), charge = 0, multiplicity = 1:

       Center              X                  Y                   Z               Mass       
    ------------   -----------------  -----------------  -----------------  -----------------
         O            0.000000000000     0.000000000000    -0.059715463841    15.994914619570
         H            0.000000000000    -0.785032107297     0.473863872729     1.007825032230
         H            0.000000000000     0.785032107297     0.473863872729     1.007825032230

  Nuclear repulsion =    9.257003295519464

  ==> Basis Set <==

  Basis Set: 6-31G
    Blend: 6-31G
    Number of shells: 9
    Number of basis function: 13
    Number of Cartesian functions: 13
    Spherical Harmonics?: false
    Max angular momentum: 1

  ==> DirectJKGrad: Integral-Direct SCF Gradients <==

    Gradient:                    1
    J tasked:                  Yes
    K tasked:                  Yes
    wK tasked:                  No
    Integrals threads:           1
    Schwarz Cutoff:          0E+00


  -Total Gradient:
     Atom            X                  Y                   Z
    ------   -----------------  -----------------  -----------------
       1       -0.000000000000     0.000000000000     0.000574876407
       2       -0.000000000000     0.000341065759    -0.000287438203
       3        0.000000000000    -0.000341065759    -0.000287438203


*** tstop() called on adabbott at Fri Jul 19 15:40:54 2019
Module time:
	user time   =       0.04 seconds =       0.00 minutes
	system time =       0.00 seconds =       0.00 minutes
	total time  =          0 seconds =       0.00 minutes
Total time:
	user time   =       0.73 seconds =       0.01 minutes
	system time =       0.01 seconds =       0.00 minutes
	total time  =          1 seconds =       0.02 minutes

			-----------------------------------------
			 OPTKING 2.0: for geometry optimizations 
			  - R.A. King,  Bethel University        
			-----------------------------------------

	Previous internal coordinate definitions found.
	---Fragment 1 Geometry and Gradient---
	 O           0.0000000000        0.0000000000       -0.1128458721
	 H           0.0000000000       -1.4834956825        0.8954729402
	 H           0.0000000000        1.4834956825        0.8954729402
	            -0.0000000000        0.0000000000        0.0005748764
	            -0.0000000000        0.0003410658       -0.0002874382
	             0.0000000000       -0.0003410658       -0.0002874382

	---Fragment 1 Intrafragment Coordinates---
	 - Coordinate -           - BOHR/RAD -       - ANG/DEG -
	 R(1,2)           =         1.793730	       0.949201
	 R(1,3)           =         1.793730	       0.949201
	 B(2,1,3)         =         1.947662	     111.592804

	Current energy   :       -75.9853587821

	Energy change for the previous step:
		Projected    :        -0.0000215063
		Actual       :        -0.0000553752
	Energy ratio indicates good step: Trust radius increased to 1.000e+00.


	Performing BFGS update.
	Previous computed or guess Hessian on step 1.
	Steps to be used in Hessian update: 2 1
	Taking RFO optimization step.
	Going to follow RFO solution 1.
	Using RFO vector 1.
	Norm of target step-size    0.00143
	Projected energy change by RFO approximation:        -0.0000007892

	Back-transformation to cartesian coordinates...
	Successfully converged to displaced geometry.

	--- Internal Coordinate Step in ANG or DEG, aJ/ANG or AJ/DEG ---
	 ---------------------------------------------------------------------------
	   Coordinate                Previous        Force       Change         New 
	   ----------                --------       ------       ------       ------
	    1 R(1,2)          =      0.949201     0.003655     0.000442     0.949643
	    2 R(1,3)          =      0.949201     0.003655     0.000442     0.949643
	    3 B(2,1,3)        =    111.592804    -0.000006    -0.045975   111.546829
	 ---------------------------------------------------------------------------
	Successfully symmetrized geometry.

  ==> Convergence Check <==

  Measures of convergence in internal coordinates in au.
  Criteria marked as inactive (o), active & met (*), and active & unmet ( ).
  ---------------------------------------------------------------------------------------------
   Step     Total Energy     Delta E     MAX Force     RMS Force      MAX Disp      RMS Disp   
  ---------------------------------------------------------------------------------------------
    Convergence Criteria    1.00e-06 *    3.00e-04 *             o    1.20e-03 *             o
  ---------------------------------------------------------------------------------------------
      3     -75.98535878   -5.54e-05      4.44e-04      3.65e-04 o    8.35e-04 *    8.24e-04 o  ~
  ---------------------------------------------------------------------------------------------

	Writing optimization data to binary file.
	Structure for next step:
	Cartesian Geometry (in Angstrom)
	    O     0.0000000000   0.0000000000  -0.0600911391
	    H     0.0000000000  -0.7851833943   0.4740517086
	    H     0.0000000000   0.7851833943   0.4740517086
			--------------------------
			 OPTKING Finished Execution 
			--------------------------

    Structure for next step:
    Molecular point group: c2v
    Full point group: C2v

    Geometry (in Angstrom), charge = 0, multiplicity = 1:

    O       
    H             1    0.949643
    H             1    0.949643      2  111.546829

gradient() will perform analytic gradient computation.

*** tstart() called on adabbott
*** at Fri Jul 19 15:40:54 2019

   => Loading Basis Set <=

    Name: 6-31G
    Role: ORBITAL
    Keyword: BASIS
    atoms 1   entry O          line   117 file /home/adabbott/anaconda3/envs/peslearn/share/psi4/basis/6-31g.gbs 
    atoms 2-3 entry H          line    26 file /home/adabbott/anaconda3/envs/peslearn/share/psi4/basis/6-31g.gbs 


         ---------------------------------------------------------
                                   SCF
               by Justin Turney, Rob Parrish, Andy Simmonett
                          and Daniel G. A. Smith
                              RHF Reference
                        1 Threads,    500 MiB Core
         ---------------------------------------------------------

  ==> Geometry <==

    Molecular point group: c2v
    Full point group: C2v

    Geometry (in Angstrom), charge = 0, multiplicity = 1:

       Center              X                  Y                   Z               Mass       
    ------------   -----------------  -----------------  -----------------  -----------------
         O            0.000000000000     0.000000000000    -0.059778529354    15.994914619570
         H            0.000000000000    -0.785183397347     0.474364320458     1.007825032230
         H            0.000000000000     0.785183397347     0.474364320458     1.007825032230

  Running in c2v symmetry.

  Rotational constants: A =     33.00745  B =     13.56560  C =      9.61427 [cm^-1]
  Rotational constants: A = 989538.34391  B = 406686.58482  C = 288228.60941 [MHz]
  Nuclear repulsion =    9.252786937494932

  Charge       = 0
  Multiplicity = 1
  Electrons    = 10
  Nalpha       = 5
  Nbeta        = 5

  ==> Algorithm <==

  SCF Algorithm Type is PK.
  DIIS enabled.
  MOM disabled.
  Fractional occupation disabled.
  Guess Type is READ.
  Energy threshold   = 1.00e-08
  Density threshold  = 1.00e-08
  Integral threshold = 0.00e+00

  ==> Primary Basis <==

  Basis Set: 6-31G
    Blend: 6-31G
    Number of shells: 9
    Number of basis function: 13
    Number of Cartesian functions: 13
    Spherical Harmonics?: false
    Max angular momentum: 1

   => Loading Basis Set <=

    Name: 6-31G
    Role: ORBITAL
    Keyword: BASIS
    atoms 1   entry O          line   117 file /home/adabbott/anaconda3/envs/peslearn/share/psi4/basis/6-31g.gbs 
    atoms 2-3 entry H          line    26 file /home/adabbott/anaconda3/envs/peslearn/share/psi4/basis/6-31g.gbs 

  Reading orbitals from file 180, no projection.

  ==> Pre-Iterations <==

   -------------------------------------------------------
    Irrep   Nso     Nmo     Nalpha   Nbeta   Ndocc  Nsocc
   -------------------------------------------------------
     A1         7       7       0       0       0       0
     A2         0       0       0       0       0       0
     B1         2       2       0       0       0       0
     B2         4       4       0       0       0       0
   -------------------------------------------------------
    Total      13      13       5       5       5       0
   -------------------------------------------------------

  ==> Integral Setup <==

  Using in-core PK algorithm.
   Calculation information:
      Number of atoms:                   3
      Number of AO shells:               9
      Number of primitives:             22
      Number of atomic orbitals:        13
      Number of basis functions:        13

      Integral cutoff                 1.00e-12
      Number of threads:                 1

  Performing in-core PK
  Using 8372 doubles for integral storage.
  We computed 1035 shell quartets total.
  Whereas there are 1035 unique shell quartets.

  ==> DiskJK: Disk-Based J/K Matrices <==

    J tasked:                  Yes
    K tasked:                  Yes
    wK tasked:                  No
    Memory [MiB]:              375
    Schwarz Cutoff:          1E-12

    OpenMP threads:              1

  Minimum eigenvalue in the overlap matrix is 6.8635686249E-02.
  Using Symmetric Orthogonalization.

  SCF Guess: Orbitals guess was supplied from a previous computation.

  ==> Iterations <==

                        Total Energy        Delta E     RMS |[F,P]|

   @RHF iter   0:   -75.98483671135753   -7.59848e+01   1.20135e-04 
   @RHF iter   1:   -75.98535915727706   -5.22446e-04   1.62189e-05 DIIS
   @RHF iter   2:   -75.98535917327266   -1.59956e-08   5.21854e-06 DIIS
   @RHF iter   3:   -75.98535917576855   -2.49590e-09   1.31832e-06 DIIS
   @RHF iter   4:   -75.98535917594299   -1.74438e-10   6.64565e-07 DIIS
   @RHF iter   5:   -75.98535917596718   -2.41869e-11   7.80322e-08 DIIS
   @RHF iter   6:   -75.98535917596767   -4.97380e-13   1.26967e-08 DIIS
   @RHF iter   7:   -75.98535917596767    0.00000e+00   1.31201e-09 DIIS
  Energy and wave function converged.


  ==> Post-Iterations <==

    Orbital Energies [Eh]
    ---------------------

    Doubly Occupied:                                                      

       1A1   -20.553486     2A1    -1.352523     1B2    -0.726373  
       3A1    -0.548231     1B1    -0.498297  

    Virtual:                                                              

       4A1     0.206983     2B2     0.302904     3B2     1.105464  
       5A1     1.161191     2B1     1.167166     6A1     1.204645  
       4B2     1.388940     7A1     1.676100  

    Final Occupation by Irrep:
             A1    A2    B1    B2 
    DOCC [     3,    0,    1,    1 ]

  @RHF Final Energy:   -75.98535917596767

   => Energetics <=

    Nuclear Repulsion Energy =              9.2527869374949319
    One-Electron Energy =                -123.1184708101586835
    Two-Electron Energy =                  37.8803246966960927
    Total Energy =                        -75.9853591759676590

Computation Completed


Properties will be evaluated at   0.000000,   0.000000,   0.000000 [a0]

Properties computed using the SCF density matrix

  Nuclear Dipole Moment: [e a0]
     X:     0.0000      Y:     0.0000      Z:     0.8891

  Electronic Dipole Moment: [e a0]
     X:     0.0000      Y:     0.0000      Z:     0.0947

  Dipole Moment: [e a0]
     X:     0.0000      Y:     0.0000      Z:     0.9838     Total:     0.9838

  Dipole Moment: [D]
     X:     0.0000      Y:     0.0000      Z:     2.5005     Total:     2.5005


*** tstop() called on adabbott at Fri Jul 19 15:40:54 2019
Module time:
	user time   =       0.13 seconds =       0.00 minutes
	system time =       0.00 seconds =       0.00 minutes
	total time  =          0 seconds =       0.00 minutes
Total time:
	user time   =       0.86 seconds =       0.01 minutes
	system time =       0.01 seconds =       0.00 minutes
	total time  =          1 seconds =       0.02 minutes

*** tstart() called on adabbott
*** at Fri Jul 19 15:40:54 2019


         ------------------------------------------------------------
                                   SCF GRAD                          
                          Rob Parrish, Justin Turney,                
                       Andy Simmonett, and Alex Sokolov              
         ------------------------------------------------------------

  ==> Geometry <==

    Molecular point group: c2v
    Full point group: C2v

    Geometry (in Angstrom), charge = 0, multiplicity = 1:

       Center              X                  Y                   Z               Mass       
    ------------   -----------------  -----------------  -----------------  -----------------
         O            0.000000000000     0.000000000000    -0.059778529354    15.994914619570
         H            0.000000000000    -0.785183397347     0.474364320458     1.007825032230
         H            0.000000000000     0.785183397347     0.474364320458     1.007825032230

  Nuclear repulsion =    9.252786937494932

  ==> Basis Set <==

  Basis Set: 6-31G
    Blend: 6-31G
    Number of shells: 9
    Number of basis function: 13
    Number of Cartesian functions: 13
    Spherical Harmonics?: false
    Max angular momentum: 1

  ==> DirectJKGrad: Integral-Direct SCF Gradients <==

    Gradient:                    1
    J tasked:                  Yes
    K tasked:                  Yes
    wK tasked:                  No
    Integrals threads:           1
    Schwarz Cutoff:          0E+00


  -Total Gradient:
     Atom            X                  Y                   Z
    ------   -----------------  -----------------  -----------------
       1       -0.000000000000     0.000000000000    -0.000010527799
       2        0.000000000000    -0.000013940505     0.000005263899
       3       -0.000000000000     0.000013940505     0.000005263899


*** tstop() called on adabbott at Fri Jul 19 15:40:54 2019
Module time:
	user time   =       0.04 seconds =       0.00 minutes
	system time =       0.00 seconds =       0.00 minutes
	total time  =          0 seconds =       0.00 minutes
Total time:
	user time   =       0.90 seconds =       0.01 minutes
	system time =       0.01 seconds =       0.00 minutes
	total time  =          1 seconds =       0.02 minutes

			-----------------------------------------
			 OPTKING 2.0: for geometry optimizations 
			  - R.A. King,  Bethel University        
			-----------------------------------------

	Previous internal coordinate definitions found.
	---Fragment 1 Geometry and Gradient---
	 O           0.0000000000        0.0000000000       -0.1129650487
	 H           0.0000000000       -1.4837815792        0.8964186494
	 H           0.0000000000        1.4837815792        0.8964186494
	            -0.0000000000        0.0000000000       -0.0000105278
	             0.0000000000       -0.0000139405        0.0000052639
	            -0.0000000000        0.0000139405        0.0000052639

	---Fragment 1 Intrafragment Coordinates---
	 - Coordinate -           - BOHR/RAD -       - ANG/DEG -
	 R(1,2)           =         1.794565	       0.949643
	 R(1,3)           =         1.794565	       0.949643
	 B(2,1,3)         =         1.946859	     111.546829

	Current energy   :       -75.9853591760

	Energy change for the previous step:
		Projected    :        -0.0000007892
		Actual       :        -0.0000003939

	Performing BFGS update.
	Previous computed or guess Hessian on step 1.
	Steps to be used in Hessian update: 3 2
	Taking RFO optimization step.
	Going to follow RFO solution 1.
	Using RFO vector 1.
	Norm of target step-size    0.00004
	Projected energy change by RFO approximation:        -0.0000000006

	Back-transformation to cartesian coordinates...
	Successfully converged to displaced geometry.

	--- Internal Coordinate Step in ANG or DEG, aJ/ANG or AJ/DEG ---
	 ---------------------------------------------------------------------------
	   Coordinate                Previous        Force       Change         New 
	   ----------                --------       ------       ------       ------
	    1 R(1,2)          =      0.949643    -0.000119    -0.000012     0.949630
	    2 R(1,3)          =      0.949643    -0.000119    -0.000012     0.949630
	    3 B(2,1,3)        =    111.546829    -0.000000    -0.001460   111.545369
	 ---------------------------------------------------------------------------
	Successfully symmetrized geometry.

  ==> Convergence Check <==

  Measures of convergence in internal coordinates in au.
  Criteria marked as inactive (o), active & met (*), and active & unmet ( ).
  ---------------------------------------------------------------------------------------------
   Step     Total Energy     Delta E     MAX Force     RMS Force      MAX Disp      RMS Disp   
  ---------------------------------------------------------------------------------------------
    Convergence Criteria    1.00e-06 *    3.00e-04 *             o    1.20e-03 *             o
  ---------------------------------------------------------------------------------------------
      4     -75.98535918   -3.94e-07 *    1.45e-05 *    1.24e-05 o    2.55e-05 *    2.42e-05 o  ~
  ---------------------------------------------------------------------------------------------


  **** Optimization is complete! (in 4 steps) ****

  ==> Optimization Summary <==

  Measures of convergence in internal coordinates in au.
  --------------------------------------------------------------------------------------------------------------- ~
   Step         Total Energy             Delta E       MAX Force       RMS Force        MAX Disp        RMS Disp  ~
  --------------------------------------------------------------------------------------------------------------- ~
      1     -75.983940298751    -75.983940298751      0.02151005      0.01339221      0.13198445      0.07672943  ~
      2     -75.985303406917     -0.001363108166      0.00528913      0.00450734      0.00940005      0.00901527  ~
      3     -75.985358782110     -0.000055375193      0.00044366      0.00036536      0.00083520      0.00082442  ~
      4     -75.985359175968     -0.000000393858      0.00001449      0.00001237      0.00002548      0.00002416  ~
  --------------------------------------------------------------------------------------------------------------- ~

	Writing optimization data to binary file.
	Final energy is    -75.9853591759677
	Final (previous) structure:
	Cartesian Geometry (in Angstrom)
	    O     0.0000000000   0.0000000000  -0.0597785291
	    H     0.0000000000  -0.7851833943   0.4743643186
	    H     0.0000000000   0.7851833943   0.4743643186
	Saving final (previous) structure.
			--------------------------
			 OPTKING Finished Execution 
			--------------------------

    Final optimized geometry and variables:
    Molecular point group: c2v
    Full point group: C2v

    Geometry (in Angstrom), charge = 0, multiplicity = 1:

    O       
    H             1    0.949643
    H             1    0.949643      2  111.546829

	Removing binary optimization data file.
	Cleaning optimization helper files.

    Psi4 stopped on: Friday, 19 July 2019 03:40PM
    Psi4 wall time for execution: 0:00:00.96

*** Psi4 exiting successfully. Buy a developer a beer!
