
    -----------------------------------------------------------------------
          Psi4: An Open-Source Ab Initio Electronic Structure Package
                               Psi4 1.3.2 release

                         Git: Rev {HEAD} ecbda83 


    R. M. Parrish, L. A. Burns, D. G. A. Smith, A. C. Simmonett,
    A. E. DePrince III, E. G. Hohenstein, U. Bozkaya, A. Yu. Sokolov,
    R. Di Remigio, R. M. Richard, J. F. Gonthier, A. M. James,
    H. R. McAlexander, A. Kumar, M. Saitow, X. Wang, B. P. Pritchard,
    P. Verma, H. F. Schaefer III, K. Patkowski, R. A. King, E. F. Valeev,
    F. A. Evangelista, J. M. Turney, T. D. Crawford, and C. D. Sherrill,
    J. Chem. Theory Comput. 13(7) pp 3185--3197 (2017).
    (doi: 10.1021/acs.jctc.7b00174)


                         Additional Contributions by
    P. Kraus, H. Kruse, M. H. Lechner, M. C. Schieber, R. A. Shaw,
    A. Alenaizan, R. Galvelis, Z. L. Glick, S. Lehtola, and J. P. Misiewicz

    -----------------------------------------------------------------------


    Psi4 started on: Friday, 19 July 2019 05:55PM

    Process ID: 20020
    Host:       adabbott
    PSIDATADIR: /home/adabbott/anaconda3/envs/peslearn/share/psi4
    Memory:     500.0 MiB
    Threads:    1
    
  ==> Input File <==

--------------------------------------------------------------------------
# density fitted hartree fock 
molecule h2o {
0 1
H 0.0000000000 0.0000000000 0.9666666667
H 0.0000000000 0.9355673654 -0.1649657688
O 0.0000000000 0.0000000000 0.0000000000
}

set scf_type pk
set basis 6-31g
gradient('hf')

--------------------------------------------------------------------------
gradient() will perform analytic gradient computation.

*** tstart() called on adabbott
*** at Fri Jul 19 17:55:11 2019

   => Loading Basis Set <=

    Name: 6-31G
    Role: ORBITAL
    Keyword: BASIS
    atoms 1-2 entry H          line    26 file /home/adabbott/anaconda3/envs/peslearn/share/psi4/basis/6-31g.gbs 
    atoms 3   entry O          line   117 file /home/adabbott/anaconda3/envs/peslearn/share/psi4/basis/6-31g.gbs 


         ---------------------------------------------------------
                                   SCF
               by Justin Turney, Rob Parrish, Andy Simmonett
                          and Daniel G. A. Smith
                              RHF Reference
                        1 Threads,    500 MiB Core
         ---------------------------------------------------------

  ==> Geometry <==

    Molecular point group: cs
    Full point group: Cs

    Geometry (in Angstrom), charge = 0, multiplicity = 1:

       Center              X                  Y                   Z               Mass       
    ------------   -----------------  -----------------  -----------------  -----------------
         H            0.052351951576    -0.921805539498     0.000000000000     1.007825032230
         H           -0.883215413824     0.209826896002     0.000000000000     1.007825032230
         O            0.052351951576     0.044861127202     0.000000000000    15.994914619570

  Running in cs symmetry.

  Rotational constants: A =     24.83551  B =     15.50927  C =      9.54722 [cm^-1]
  Rotational constants: A = 744549.74973  B = 464956.34943  C = 286218.59273 [MHz]
  Nuclear repulsion =    9.196030260869879

  Charge       = 0
  Multiplicity = 1
  Electrons    = 10
  Nalpha       = 5
  Nbeta        = 5

  ==> Algorithm <==

  SCF Algorithm Type is PK.
  DIIS enabled.
  MOM disabled.
  Fractional occupation disabled.
  Guess Type is SAD.
  Energy threshold   = 1.00e-08
  Density threshold  = 1.00e-08
  Integral threshold = 0.00e+00

  ==> Primary Basis <==

  Basis Set: 6-31G
    Blend: 6-31G
    Number of shells: 9
    Number of basis function: 13
    Number of Cartesian functions: 13
    Spherical Harmonics?: false
    Max angular momentum: 1

  ==> Pre-Iterations <==

   -------------------------------------------------------
    Irrep   Nso     Nmo     Nalpha   Nbeta   Ndocc  Nsocc
   -------------------------------------------------------
     A'        11      11       0       0       0       0
     A"         2       2       0       0       0       0
   -------------------------------------------------------
    Total      13      13       5       5       5       0
   -------------------------------------------------------

  ==> Integral Setup <==

  Using in-core PK algorithm.
   Calculation information:
      Number of atoms:                   3
      Number of AO shells:               9
      Number of primitives:             22
      Number of atomic orbitals:        13
      Number of basis functions:        13

      Integral cutoff                 1.00e-12
      Number of threads:                 1

  Performing in-core PK
  Using 8372 doubles for integral storage.
  We computed 1035 shell quartets total.
  Whereas there are 1035 unique shell quartets.

  ==> DiskJK: Disk-Based J/K Matrices <==

    J tasked:                  Yes
    K tasked:                  Yes
    wK tasked:                  No
    Memory [MiB]:              375
    Schwarz Cutoff:          1E-12

    OpenMP threads:              1

  Minimum eigenvalue in the overlap matrix is 6.6710784885E-02.
  Using Symmetric Orthogonalization.

  SCF Guess: Superposition of Atomic Densities via on-the-fly atomic UHF.

  ==> Iterations <==

                        Total Energy        Delta E     RMS |[F,P]|

   @RHF iter SAD:   -75.52877382425642   -7.55288e+01   0.00000e+00 
   @RHF iter   1:   -75.90590848203431   -3.77135e-01   3.64515e-02 DIIS
   @RHF iter   2:   -75.96171805899776   -5.58096e-02   2.12684e-02 DIIS
   @RHF iter   3:   -75.98116554696468   -1.94475e-02   1.72789e-03 DIIS
   @RHF iter   4:   -75.98148703751498   -3.21491e-04   3.13559e-04 DIIS
   @RHF iter   5:   -75.98149779087652   -1.07534e-05   4.30462e-05 DIIS
   @RHF iter   6:   -75.98149806116621   -2.70290e-07   6.38987e-06 DIIS
   @RHF iter   7:   -75.98149806705354   -5.88733e-09   1.25003e-06 DIIS
   @RHF iter   8:   -75.98149806732418   -2.70646e-10   2.89293e-07 DIIS
   @RHF iter   9:   -75.98149806733717   -1.29887e-11   3.00865e-08 DIIS
   @RHF iter  10:   -75.98149806733738   -2.13163e-13   2.71343e-09 DIIS
  Energy and wave function converged.


  ==> Post-Iterations <==

    Orbital Energies [Eh]
    ---------------------

    Doubly Occupied:                                                      

       1Ap   -20.563866     2Ap    -1.361068     3Ap    -0.701400  
       4Ap    -0.569261     1App   -0.503517  

    Virtual:                                                              

       5Ap     0.202065     6Ap     0.298796     7Ap     1.033084  
       2App    1.162765     8Ap     1.195985     9Ap     1.231616  
      10Ap     1.375541    11Ap     1.711604  

    Final Occupation by Irrep:
             Ap   App 
    DOCC [     4,    1 ]

  @RHF Final Energy:   -75.98149806733738

   => Energetics <=

    Nuclear Repulsion Energy =              9.1960302608698790
    One-Electron Energy =                -122.9568319197993276
    Two-Electron Energy =                  37.7793035915920683
    Total Energy =                        -75.9814980673373839

Computation Completed


Properties will be evaluated at   0.000000,   0.000000,   0.000000 [a0]

Properties computed using the SCF density matrix

  Nuclear Dipole Moment: [e a0]
     X:    -0.7787      Y:    -0.6672      Z:     0.0000

  Electronic Dipole Moment: [e a0]
     X:    -0.0354      Y:    -0.0183      Z:     0.0000

  Dipole Moment: [e a0]
     X:    -0.8140      Y:    -0.6856      Z:     0.0000     Total:     1.0643

  Dipole Moment: [D]
     X:    -2.0690      Y:    -1.7426      Z:     0.0000     Total:     2.7051


*** tstop() called on adabbott at Fri Jul 19 17:55:12 2019
Module time:
	user time   =       0.32 seconds =       0.01 minutes
	system time =       0.01 seconds =       0.00 minutes
	total time  =          1 seconds =       0.02 minutes
Total time:
	user time   =       0.32 seconds =       0.01 minutes
	system time =       0.01 seconds =       0.00 minutes
	total time  =          1 seconds =       0.02 minutes

*** tstart() called on adabbott
*** at Fri Jul 19 17:55:12 2019


         ------------------------------------------------------------
                                   SCF GRAD                          
                          Rob Parrish, Justin Turney,                
                       Andy Simmonett, and Alex Sokolov              
         ------------------------------------------------------------

  ==> Geometry <==

    Molecular point group: cs
    Full point group: Cs

    Geometry (in Angstrom), charge = 0, multiplicity = 1:

       Center              X                  Y                   Z               Mass       
    ------------   -----------------  -----------------  -----------------  -----------------
         H            0.052351951576    -0.921805539498     0.000000000000     1.007825032230
         H           -0.883215413824     0.209826896002     0.000000000000     1.007825032230
         O            0.052351951576     0.044861127202     0.000000000000    15.994914619570

  Nuclear repulsion =    9.196030260869879

  ==> Basis Set <==

  Basis Set: 6-31G
    Blend: 6-31G
    Number of shells: 9
    Number of basis function: 13
    Number of Cartesian functions: 13
    Spherical Harmonics?: false
    Max angular momentum: 1

  ==> DirectJKGrad: Integral-Direct SCF Gradients <==

    Gradient:                    1
    J tasked:                  Yes
    K tasked:                  Yes
    wK tasked:                  No
    Integrals threads:           1
    Schwarz Cutoff:          0E+00


  -Total Gradient:
     Atom            X                  Y                   Z
    ------   -----------------  -----------------  -----------------
       1       -0.020733573226    -0.009554573016     0.000000000000
       2        0.004284713568    -0.022178291356     0.000000000000
       3        0.016448859657     0.031732864372     0.000000000000


*** tstop() called on adabbott at Fri Jul 19 17:55:12 2019
Module time:
	user time   =       0.05 seconds =       0.00 minutes
	system time =       0.00 seconds =       0.00 minutes
	total time  =          0 seconds =       0.00 minutes
Total time:
	user time   =       0.37 seconds =       0.01 minutes
	system time =       0.01 seconds =       0.00 minutes
	total time  =          1 seconds =       0.02 minutes

    Psi4 stopped on: Friday, 19 July 2019 05:55PM
    Psi4 wall time for execution: 0:00:00.38

*** Psi4 exiting successfully. Buy a developer a beer!
