
    -----------------------------------------------------------------------
          Psi4: An Open-Source Ab Initio Electronic Structure Package
                               Psi4 1.3.2 release

                         Git: Rev {HEAD} ecbda83 


    R. M. Parrish, L. A. Burns, D. G. A. Smith, A. C. Simmonett,
    A. E. DePrince III, E. G. Hohenstein, U. Bozkaya, A. Yu. Sokolov,
    R. Di Remigio, R. M. Richard, J. F. Gonthier, A. M. James,
    H. R. McAlexander, A. Kumar, M. Saitow, X. Wang, B. P. Pritchard,
    P. Verma, H. F. Schaefer III, K. Patkowski, R. A. King, E. F. Valeev,
    F. A. Evangelista, J. M. Turney, T. D. Crawford, and C. D. Sherrill,
    J. Chem. Theory Comput. 13(7) pp 3185--3197 (2017).
    (doi: 10.1021/acs.jctc.7b00174)


                         Additional Contributions by
    P. Kraus, H. Kruse, M. H. Lechner, M. C. Schieber, R. A. Shaw,
    A. Alenaizan, R. Galvelis, Z. L. Glick, S. Lehtola, and J. P. Misiewicz

    -----------------------------------------------------------------------


    Psi4 started on: Friday, 19 July 2019 05:52PM

    Process ID: 19360
    Host:       adabbott
    PSIDATADIR: /home/adabbott/anaconda3/envs/peslearn/share/psi4
    Memory:     500.0 MiB
    Threads:    1
    
  ==> Input File <==

--------------------------------------------------------------------------
# density fitted hartree fock 
molecule h2o {
0 1
H 0.0000000000 0.0000000000 0.9166666667
H 0.0000000000 0.8263944962 -0.3564717894
O 0.0000000000 0.0000000000 0.0000000000
}

set scf_type pk
set basis 6-31g
gradient('hf')

--------------------------------------------------------------------------
gradient() will perform analytic gradient computation.

*** tstart() called on adabbott
*** at Fri Jul 19 17:52:49 2019

   => Loading Basis Set <=

    Name: 6-31G
    Role: ORBITAL
    Keyword: BASIS
    atoms 1-2 entry H          line    26 file /home/adabbott/anaconda3/envs/peslearn/share/psi4/basis/6-31g.gbs 
    atoms 3   entry O          line   117 file /home/adabbott/anaconda3/envs/peslearn/share/psi4/basis/6-31g.gbs 


         ---------------------------------------------------------
                                   SCF
               by Justin Turney, Rob Parrish, Andy Simmonett
                          and Daniel G. A. Smith
                              RHF Reference
                        1 Threads,    500 MiB Core
         ---------------------------------------------------------

  ==> Geometry <==

    Molecular point group: cs
    Full point group: Cs

    Geometry (in Angstrom), charge = 0, multiplicity = 1:

       Center              X                  Y                   Z               Mass       
    ------------   -----------------  -----------------  -----------------  -----------------
         H            0.046242917664    -0.885319597345     0.000000000000     1.007825032230
         H           -0.780151578536     0.387818858755     0.000000000000     1.007825032230
         O            0.046242917664     0.031347069355     0.000000000000    15.994914619570

  Running in cs symmetry.

  Rotational constants: A =     37.81671  B =     14.51733  C =     10.49026 [cm^-1]
  Rotational constants: A = 1133716.40199  B = 435218.53169  C = 314490.02584 [MHz]
  Nuclear repulsion =    9.670711786551298

  Charge       = 0
  Multiplicity = 1
  Electrons    = 10
  Nalpha       = 5
  Nbeta        = 5

  ==> Algorithm <==

  SCF Algorithm Type is PK.
  DIIS enabled.
  MOM disabled.
  Fractional occupation disabled.
  Guess Type is SAD.
  Energy threshold   = 1.00e-08
  Density threshold  = 1.00e-08
  Integral threshold = 0.00e+00

  ==> Primary Basis <==

  Basis Set: 6-31G
    Blend: 6-31G
    Number of shells: 9
    Number of basis function: 13
    Number of Cartesian functions: 13
    Spherical Harmonics?: false
    Max angular momentum: 1

  ==> Pre-Iterations <==

   -------------------------------------------------------
    Irrep   Nso     Nmo     Nalpha   Nbeta   Ndocc  Nsocc
   -------------------------------------------------------
     A'        11      11       0       0       0       0
     A"         2       2       0       0       0       0
   -------------------------------------------------------
    Total      13      13       5       5       5       0
   -------------------------------------------------------

  ==> Integral Setup <==

  Using in-core PK algorithm.
   Calculation information:
      Number of atoms:                   3
      Number of AO shells:               9
      Number of primitives:             22
      Number of atomic orbitals:        13
      Number of basis functions:        13

      Integral cutoff                 1.00e-12
      Number of threads:                 1

  Performing in-core PK
  Using 8372 doubles for integral storage.
  We computed 1035 shell quartets total.
  Whereas there are 1035 unique shell quartets.

  ==> DiskJK: Disk-Based J/K Matrices <==

    J tasked:                  Yes
    K tasked:                  Yes
    wK tasked:                  No
    Memory [MiB]:              375
    Schwarz Cutoff:          1E-12

    OpenMP threads:              1

  Minimum eigenvalue in the overlap matrix is 6.3547045589E-02.
  Using Symmetric Orthogonalization.

  SCF Guess: Superposition of Atomic Densities via on-the-fly atomic UHF.

  ==> Iterations <==

                        Total Energy        Delta E     RMS |[F,P]|

   @RHF iter SAD:   -75.58620922597669   -7.55862e+01   0.00000e+00 
   @RHF iter   1:   -75.91200715852564   -3.25798e-01   3.63781e-02 DIIS
   @RHF iter   2:   -75.96452801752449   -5.25209e-02   1.96491e-02 DIIS
   @RHF iter   3:   -75.98107027251331   -1.65423e-02   1.63908e-03 DIIS
   @RHF iter   4:   -75.98132691217972   -2.56640e-04   2.44105e-04 DIIS
   @RHF iter   5:   -75.98133446470183   -7.55252e-06   4.32194e-05 DIIS
   @RHF iter   6:   -75.98133480542869   -3.40727e-07   8.31487e-06 DIIS
   @RHF iter   7:   -75.98133481827031   -1.28416e-08   1.36144e-06 DIIS
   @RHF iter   8:   -75.98133481856078   -2.90470e-10   2.10298e-07 DIIS
   @RHF iter   9:   -75.98133481856524   -4.46221e-12   2.07615e-08 DIIS
   @RHF iter  10:   -75.98133481856529   -4.26326e-14   2.37451e-09 DIIS
  Energy and wave function converged.


  ==> Post-Iterations <==

    Orbital Energies [Eh]
    ---------------------

    Doubly Occupied:                                                      

       1Ap   -20.544338     2Ap    -1.373843     3Ap    -0.754974  
       4Ap    -0.550930     1App   -0.500495  

    Virtual:                                                              

       5Ap     0.217219     6Ap     0.312550     7Ap     1.136295  
       2App    1.167298     8Ap     1.186287     9Ap     1.219808  
      10Ap     1.408815    11Ap     1.675479  

    Final Occupation by Irrep:
             Ap   App 
    DOCC [     4,    1 ]

  @RHF Final Energy:   -75.98133481856529

   => Energetics <=

    Nuclear Repulsion Energy =              9.6707117865512977
    One-Electron Energy =                -123.8549310920763844
    Two-Electron Energy =                  38.2028844869598032
    Total Energy =                        -75.9813348185652870

Computation Completed


Properties will be evaluated at   0.000000,   0.000000,   0.000000 [a0]

Properties computed using the SCF density matrix

  Nuclear Dipole Moment: [e a0]
     X:    -0.6878      Y:    -0.4662      Z:     0.0000

  Electronic Dipole Moment: [e a0]
     X:    -0.1132      Y:    -0.0671      Z:     0.0000

  Dipole Moment: [e a0]
     X:    -0.8010      Y:    -0.5334      Z:     0.0000     Total:     0.9624

  Dipole Moment: [D]
     X:    -2.0360      Y:    -1.3557      Z:     0.0000     Total:     2.4461


*** tstop() called on adabbott at Fri Jul 19 17:52:50 2019
Module time:
	user time   =       0.32 seconds =       0.01 minutes
	system time =       0.01 seconds =       0.00 minutes
	total time  =          1 seconds =       0.02 minutes
Total time:
	user time   =       0.32 seconds =       0.01 minutes
	system time =       0.01 seconds =       0.00 minutes
	total time  =          1 seconds =       0.02 minutes

*** tstart() called on adabbott
*** at Fri Jul 19 17:52:50 2019


         ------------------------------------------------------------
                                   SCF GRAD                          
                          Rob Parrish, Justin Turney,                
                       Andy Simmonett, and Alex Sokolov              
         ------------------------------------------------------------

  ==> Geometry <==

    Molecular point group: cs
    Full point group: Cs

    Geometry (in Angstrom), charge = 0, multiplicity = 1:

       Center              X                  Y                   Z               Mass       
    ------------   -----------------  -----------------  -----------------  -----------------
         H            0.046242917664    -0.885319597345     0.000000000000     1.007825032230
         H           -0.780151578536     0.387818858755     0.000000000000     1.007825032230
         O            0.046242917664     0.031347069355     0.000000000000    15.994914619570

  Nuclear repulsion =    9.670711786551298

  ==> Basis Set <==

  Basis Set: 6-31G
    Blend: 6-31G
    Number of shells: 9
    Number of basis function: 13
    Number of Cartesian functions: 13
    Spherical Harmonics?: false
    Max angular momentum: 1

  ==> DirectJKGrad: Integral-Direct SCF Gradients <==

    Gradient:                    1
    J tasked:                  Yes
    K tasked:                  Yes
    wK tasked:                  No
    Integrals threads:           1
    Schwarz Cutoff:          0E+00


  -Total Gradient:
     Atom            X                  Y                   Z
    ------   -----------------  -----------------  -----------------
       1       -0.000425695440     0.039404326937     0.000000000000
       2        0.059211196536    -0.026013414119     0.000000000000
       3       -0.058785501096    -0.013390912818     0.000000000000


*** tstop() called on adabbott at Fri Jul 19 17:52:50 2019
Module time:
	user time   =       0.05 seconds =       0.00 minutes
	system time =       0.00 seconds =       0.00 minutes
	total time  =          0 seconds =       0.00 minutes
Total time:
	user time   =       0.37 seconds =       0.01 minutes
	system time =       0.01 seconds =       0.00 minutes
	total time  =          1 seconds =       0.02 minutes

    Psi4 stopped on: Friday, 19 July 2019 05:52PM
    Psi4 wall time for execution: 0:00:00.38

*** Psi4 exiting successfully. Buy a developer a beer!
