
    -----------------------------------------------------------------------
          Psi4: An Open-Source Ab Initio Electronic Structure Package
                               Psi4 1.3.2 release

                         Git: Rev {HEAD} ecbda83 


    R. M. Parrish, L. A. Burns, D. G. A. Smith, A. C. Simmonett,
    A. E. DePrince III, E. G. Hohenstein, U. Bozkaya, A. Yu. Sokolov,
    R. Di Remigio, R. M. Richard, J. F. Gonthier, A. M. James,
    H. R. McAlexander, A. Kumar, M. Saitow, X. Wang, B. P. Pritchard,
    P. Verma, H. F. Schaefer III, K. Patkowski, R. A. King, E. F. Valeev,
    F. A. Evangelista, J. M. Turney, T. D. Crawford, and C. D. Sherrill,
    J. Chem. Theory Comput. 13(7) pp 3185--3197 (2017).
    (doi: 10.1021/acs.jctc.7b00174)


                         Additional Contributions by
    P. Kraus, H. Kruse, M. H. Lechner, M. C. Schieber, R. A. Shaw,
    A. Alenaizan, R. Galvelis, Z. L. Glick, S. Lehtola, and J. P. Misiewicz

    -----------------------------------------------------------------------


    Psi4 started on: Friday, 19 July 2019 05:52PM

    Process ID: 19345
    Host:       adabbott
    PSIDATADIR: /home/adabbott/anaconda3/envs/peslearn/share/psi4
    Memory:     500.0 MiB
    Threads:    1
    
  ==> Input File <==

--------------------------------------------------------------------------
# density fitted hartree fock 
molecule h2o {
0 1
H 0.0000000000 0.0000000000 0.9166666667
H 0.0000000000 0.8570016998 -0.3696744483
O 0.0000000000 0.0000000000 0.0000000000
}

set scf_type pk
set basis 6-31g
gradient('hf')

--------------------------------------------------------------------------
gradient() will perform analytic gradient computation.

*** tstart() called on adabbott
*** at Fri Jul 19 17:52:46 2019

   => Loading Basis Set <=

    Name: 6-31G
    Role: ORBITAL
    Keyword: BASIS
    atoms 1-2 entry H          line    26 file /home/adabbott/anaconda3/envs/peslearn/share/psi4/basis/6-31g.gbs 
    atoms 3   entry O          line   117 file /home/adabbott/anaconda3/envs/peslearn/share/psi4/basis/6-31g.gbs 


         ---------------------------------------------------------
                                   SCF
               by Justin Turney, Rob Parrish, Andy Simmonett
                          and Daniel G. A. Smith
                              RHF Reference
                        1 Threads,    500 MiB Core
         ---------------------------------------------------------

  ==> Geometry <==

    Molecular point group: cs
    Full point group: Cs

    Geometry (in Angstrom), charge = 0, multiplicity = 1:

       Center              X                  Y                   Z               Mass       
    ------------   -----------------  -----------------  -----------------  -----------------
         H            0.047955618320    -0.886058384294     0.000000000000     1.007825032230
         H           -0.809046081480     0.400282730706     0.000000000000     1.007825032230
         O            0.047955618320     0.030608282406     0.000000000000    15.994914619570

  Running in cs symmetry.

  Rotational constants: A =     36.46563  B =     13.99904  C =     10.11567 [cm^-1]
  Rotational constants: A = 1093212.10733  B = 419680.54959  C = 303260.02042 [MHz]
  Nuclear repulsion =    9.496437432414222

  Charge       = 0
  Multiplicity = 1
  Electrons    = 10
  Nalpha       = 5
  Nbeta        = 5

  ==> Algorithm <==

  SCF Algorithm Type is PK.
  DIIS enabled.
  MOM disabled.
  Fractional occupation disabled.
  Guess Type is SAD.
  Energy threshold   = 1.00e-08
  Density threshold  = 1.00e-08
  Integral threshold = 0.00e+00

  ==> Primary Basis <==

  Basis Set: 6-31G
    Blend: 6-31G
    Number of shells: 9
    Number of basis function: 13
    Number of Cartesian functions: 13
    Spherical Harmonics?: false
    Max angular momentum: 1

  ==> Pre-Iterations <==

   -------------------------------------------------------
    Irrep   Nso     Nmo     Nalpha   Nbeta   Ndocc  Nsocc
   -------------------------------------------------------
     A'        11      11       0       0       0       0
     A"         2       2       0       0       0       0
   -------------------------------------------------------
    Total      13      13       5       5       5       0
   -------------------------------------------------------

  ==> Integral Setup <==

  Using in-core PK algorithm.
   Calculation information:
      Number of atoms:                   3
      Number of AO shells:               9
      Number of primitives:             22
      Number of atomic orbitals:        13
      Number of basis functions:        13

      Integral cutoff                 1.00e-12
      Number of threads:                 1

  Performing in-core PK
  Using 8372 doubles for integral storage.
  We computed 1035 shell quartets total.
  Whereas there are 1035 unique shell quartets.

  ==> DiskJK: Disk-Based J/K Matrices <==

    J tasked:                  Yes
    K tasked:                  Yes
    wK tasked:                  No
    Memory [MiB]:              375
    Schwarz Cutoff:          1E-12

    OpenMP threads:              1

  Minimum eigenvalue in the overlap matrix is 6.5746471222E-02.
  Using Symmetric Orthogonalization.

  SCF Guess: Superposition of Atomic Densities via on-the-fly atomic UHF.

  ==> Iterations <==

                        Total Energy        Delta E     RMS |[F,P]|

   @RHF iter SAD:   -75.56258739196522   -7.55626e+01   0.00000e+00 
   @RHF iter   1:   -75.91427519116644   -3.51688e-01   3.61889e-02 DIIS
   @RHF iter   2:   -75.96648503017185   -5.22098e-02   1.99534e-02 DIIS
   @RHF iter   3:   -75.98358078023344   -1.70958e-02   1.65903e-03 DIIS
   @RHF iter   4:   -75.98385748574154   -2.76706e-04   2.65316e-04 DIIS
   @RHF iter   5:   -75.98386650469256   -9.01895e-06   4.55279e-05 DIIS
   @RHF iter   6:   -75.98386688578252   -3.81090e-07   9.11885e-06 DIIS
   @RHF iter   7:   -75.98386690148264   -1.57001e-08   1.53364e-06 DIIS
   @RHF iter   8:   -75.98386690186337   -3.80723e-10   2.32746e-07 DIIS
   @RHF iter   9:   -75.98386690186871   -5.34328e-12   2.33419e-08 DIIS
   @RHF iter  10:   -75.98386690186888   -1.70530e-13   2.61861e-09 DIIS
  Energy and wave function converged.


  ==> Post-Iterations <==

    Orbital Energies [Eh]
    ---------------------

    Doubly Occupied:                                                      

       1Ap   -20.547442     2Ap    -1.364178     3Ap    -0.744373  
       4Ap    -0.548464     1App   -0.499171  

    Virtual:                                                              

       5Ap     0.213263     6Ap     0.308891     7Ap     1.128868  
       2App    1.167567     8Ap     1.178873     9Ap     1.205512  
      10Ap     1.400167    11Ap     1.674109  

    Final Occupation by Irrep:
             Ap   App 
    DOCC [     4,    1 ]

  @RHF Final Energy:   -75.98386690186888

   => Energetics <=

    Nuclear Repulsion Energy =              9.4964374324142220
    One-Electron Energy =                -123.5533516032313912
    Two-Electron Energy =                  38.0730472689483008
    Total Energy =                        -75.9838669018688648

Computation Completed


Properties will be evaluated at   0.000000,   0.000000,   0.000000 [a0]

Properties computed using the SCF density matrix

  Nuclear Dipole Moment: [e a0]
     X:    -0.7133      Y:    -0.4553      Z:     0.0000

  Electronic Dipole Moment: [e a0]
     X:    -0.0965      Y:    -0.0710      Z:     0.0000

  Dipole Moment: [e a0]
     X:    -0.8098      Y:    -0.5262      Z:     0.0000     Total:     0.9657

  Dipole Moment: [D]
     X:    -2.0582      Y:    -1.3376      Z:     0.0000     Total:     2.4546


*** tstop() called on adabbott at Fri Jul 19 17:52:46 2019
Module time:
	user time   =       0.33 seconds =       0.01 minutes
	system time =       0.01 seconds =       0.00 minutes
	total time  =          0 seconds =       0.00 minutes
Total time:
	user time   =       0.33 seconds =       0.01 minutes
	system time =       0.01 seconds =       0.00 minutes
	total time  =          0 seconds =       0.00 minutes

*** tstart() called on adabbott
*** at Fri Jul 19 17:52:46 2019


         ------------------------------------------------------------
                                   SCF GRAD                          
                          Rob Parrish, Justin Turney,                
                       Andy Simmonett, and Alex Sokolov              
         ------------------------------------------------------------

  ==> Geometry <==

    Molecular point group: cs
    Full point group: Cs

    Geometry (in Angstrom), charge = 0, multiplicity = 1:

       Center              X                  Y                   Z               Mass       
    ------------   -----------------  -----------------  -----------------  -----------------
         H            0.047955618320    -0.886058384294     0.000000000000     1.007825032230
         H           -0.809046081480     0.400282730706     0.000000000000     1.007825032230
         O            0.047955618320     0.030608282406     0.000000000000    15.994914619570

  Nuclear repulsion =    9.496437432414222

  ==> Basis Set <==

  Basis Set: 6-31G
    Blend: 6-31G
    Number of shells: 9
    Number of basis function: 13
    Number of Cartesian functions: 13
    Spherical Harmonics?: false
    Max angular momentum: 1

  ==> DirectJKGrad: Integral-Direct SCF Gradients <==

    Gradient:                    1
    J tasked:                  Yes
    K tasked:                  Yes
    wK tasked:                  No
    Integrals threads:           1
    Schwarz Cutoff:          0E+00


  -Total Gradient:
     Atom            X                  Y                   Z
    ------   -----------------  -----------------  -----------------
       1        0.001028972578     0.040085120984     0.000000000000
       2        0.016494069941    -0.006014236636     0.000000000000
       3       -0.017523042519    -0.034070884348     0.000000000000


*** tstop() called on adabbott at Fri Jul 19 17:52:46 2019
Module time:
	user time   =       0.04 seconds =       0.00 minutes
	system time =       0.00 seconds =       0.00 minutes
	total time  =          0 seconds =       0.00 minutes
Total time:
	user time   =       0.37 seconds =       0.01 minutes
	system time =       0.01 seconds =       0.00 minutes
	total time  =          0 seconds =       0.00 minutes

    Psi4 stopped on: Friday, 19 July 2019 05:52PM
    Psi4 wall time for execution: 0:00:00.39

*** Psi4 exiting successfully. Buy a developer a beer!
