
Host: adabbott

Timers On : Fri Aug  2 11:42:48 2019
Timers Off: Fri Aug  2 12:04:13 2019

Wall Time:     1284.83 seconds

                                                       Time (seconds)
Module                                       User      System        Wall        Calls

--------------------------------------------------------------------------------------

**************************************************************************************
