
    -----------------------------------------------------------------------
          Psi4: An Open-Source Ab Initio Electronic Structure Package
                               Psi4 1.3.2 release

                         Git: Rev {HEAD} ecbda83 


    R. M. Parrish, L. A. Burns, D. G. A. Smith, A. C. Simmonett,
    A. E. DePrince III, E. G. Hohenstein, U. Bozkaya, A. Yu. Sokolov,
    R. Di Remigio, R. M. Richard, J. F. Gonthier, A. M. James,
    H. R. McAlexander, A. Kumar, M. Saitow, X. Wang, B. P. Pritchard,
    P. Verma, H. F. Schaefer III, K. Patkowski, R. A. King, E. F. Valeev,
    F. A. Evangelista, J. M. Turney, T. D. Crawford, and C. D. Sherrill,
    J. Chem. Theory Comput. 13(7) pp 3185--3197 (2017).
    (doi: 10.1021/acs.jctc.7b00174)


                         Additional Contributions by
    P. Kraus, H. Kruse, M. H. Lechner, M. C. Schieber, R. A. Shaw,
    A. Alenaizan, R. Galvelis, Z. L. Glick, S. Lehtola, and J. P. Misiewicz

    -----------------------------------------------------------------------


    Psi4 started on: Friday, 19 July 2019 05:52PM

    Process ID: 19212
    Host:       adabbott
    PSIDATADIR: /home/adabbott/anaconda3/envs/peslearn/share/psi4
    Memory:     500.0 MiB
    Threads:    1
    
  ==> Input File <==

--------------------------------------------------------------------------
# density fitted hartree fock 
molecule h2o {
0 1
H 0.0000000000 0.0000000000 0.9833333333
H 0.0000000000 0.8876089033 -0.3828771072
O 0.0000000000 0.0000000000 0.0000000000
}

set scf_type pk
set basis 6-31g
gradient('hf')

--------------------------------------------------------------------------
gradient() will perform analytic gradient computation.

*** tstart() called on adabbott
*** at Fri Jul 19 17:52:15 2019

   => Loading Basis Set <=

    Name: 6-31G
    Role: ORBITAL
    Keyword: BASIS
    atoms 1-2 entry H          line    26 file /home/adabbott/anaconda3/envs/peslearn/share/psi4/basis/6-31g.gbs 
    atoms 3   entry O          line   117 file /home/adabbott/anaconda3/envs/peslearn/share/psi4/basis/6-31g.gbs 


         ---------------------------------------------------------
                                   SCF
               by Justin Turney, Rob Parrish, Andy Simmonett
                          and Daniel G. A. Smith
                              RHF Reference
                        1 Threads,    500 MiB Core
         ---------------------------------------------------------

  ==> Geometry <==

    Molecular point group: cs
    Full point group: Cs

    Geometry (in Angstrom), charge = 0, multiplicity = 1:

       Center              X                  Y                   Z               Mass       
    ------------   -----------------  -----------------  -----------------  -----------------
         H            0.049668318971    -0.949733342070     0.000000000000     1.007825032230
         H           -0.837940584329     0.416477098430     0.000000000000     1.007825032230
         O            0.049668318971     0.033599991230     0.000000000000    15.994914619570

  Running in cs symmetry.

  Rotational constants: A =     32.82003  B =     12.60040  C =      9.10483 [cm^-1]
  Rotational constants: A = 983919.75891  B = 377750.47183  C = 272956.06879 [MHz]
  Nuclear repulsion =    9.009370766041283

  Charge       = 0
  Multiplicity = 1
  Electrons    = 10
  Nalpha       = 5
  Nbeta        = 5

  ==> Algorithm <==

  SCF Algorithm Type is PK.
  DIIS enabled.
  MOM disabled.
  Fractional occupation disabled.
  Guess Type is SAD.
  Energy threshold   = 1.00e-08
  Density threshold  = 1.00e-08
  Integral threshold = 0.00e+00

  ==> Primary Basis <==

  Basis Set: 6-31G
    Blend: 6-31G
    Number of shells: 9
    Number of basis function: 13
    Number of Cartesian functions: 13
    Spherical Harmonics?: false
    Max angular momentum: 1

  ==> Pre-Iterations <==

   -------------------------------------------------------
    Irrep   Nso     Nmo     Nalpha   Nbeta   Ndocc  Nsocc
   -------------------------------------------------------
     A'        11      11       0       0       0       0
     A"         2       2       0       0       0       0
   -------------------------------------------------------
    Total      13      13       5       5       5       0
   -------------------------------------------------------

  ==> Integral Setup <==

  Using in-core PK algorithm.
   Calculation information:
      Number of atoms:                   3
      Number of AO shells:               9
      Number of primitives:             22
      Number of atomic orbitals:        13
      Number of basis functions:        13

      Integral cutoff                 1.00e-12
      Number of threads:                 1

  Performing in-core PK
  Using 8372 doubles for integral storage.
  We computed 1035 shell quartets total.
  Whereas there are 1035 unique shell quartets.

  ==> DiskJK: Disk-Based J/K Matrices <==

    J tasked:                  Yes
    K tasked:                  Yes
    wK tasked:                  No
    Memory [MiB]:              375
    Schwarz Cutoff:          1E-12

    OpenMP threads:              1

  Minimum eigenvalue in the overlap matrix is 7.2640958416E-02.
  Using Symmetric Orthogonalization.

  SCF Guess: Superposition of Atomic Densities via on-the-fly atomic UHF.

  ==> Iterations <==

                        Total Energy        Delta E     RMS |[F,P]|

   @RHF iter SAD:   -75.48859042717299   -7.54886e+01   0.00000e+00 
   @RHF iter   1:   -75.91249243758038   -4.23902e-01   3.58312e-02 DIIS
   @RHF iter   2:   -75.96426337997720   -5.17709e-02   2.10481e-02 DIIS
   @RHF iter   3:   -75.98340429075714   -1.91409e-02   1.74587e-03 DIIS
   @RHF iter   4:   -75.98375512695590   -3.50836e-04   3.31493e-04 DIIS
   @RHF iter   5:   -75.98376937416452   -1.42472e-05   5.21865e-05 DIIS
   @RHF iter   6:   -75.98376988880125   -5.14637e-07   1.20511e-05 DIIS
   @RHF iter   7:   -75.98376991801807   -2.92168e-08   2.10714e-06 DIIS
   @RHF iter   8:   -75.98376991880690   -7.88830e-10   3.14892e-07 DIIS
   @RHF iter   9:   -75.98376991881682   -9.91918e-12   3.18377e-08 DIIS
   @RHF iter  10:   -75.98376991881703   -2.13163e-13   3.30489e-09 DIIS
  Energy and wave function converged.


  ==> Post-Iterations <==

    Orbital Energies [Eh]
    ---------------------

    Doubly Occupied:                                                      

       1Ap   -20.556775     2Ap    -1.337524     3Ap    -0.714081  
       4Ap    -0.541134     1App   -0.495739  

    Virtual:                                                              

       5Ap     0.200462     6Ap     0.296825     7Ap     1.101571  
       8Ap     1.121327     2App    1.168117     9Ap     1.207300  
      10Ap     1.385732    11Ap     1.669206  

    Final Occupation by Irrep:
             Ap   App 
    DOCC [     4,    1 ]

  @RHF Final Energy:   -75.98376991881703

   => Energetics <=

    Nuclear Repulsion Energy =              9.0093707660412825
    One-Electron Energy =                -122.6957744933046257
    Two-Electron Energy =                  37.7026338084463220
    Total Energy =                        -75.9837699188170177

Computation Completed


Properties will be evaluated at   0.000000,   0.000000,   0.000000 [a0]

Properties computed using the SCF density matrix

  Nuclear Dipole Moment: [e a0]
     X:    -0.7387      Y:    -0.4998      Z:     0.0000

  Electronic Dipole Moment: [e a0]
     X:    -0.0727      Y:    -0.0395      Z:     0.0000

  Dipole Moment: [e a0]
     X:    -0.8114      Y:    -0.5393      Z:     0.0000     Total:     0.9743

  Dipole Moment: [D]
     X:    -2.0624      Y:    -1.3707      Z:     0.0000     Total:     2.4763


*** tstop() called on adabbott at Fri Jul 19 17:52:16 2019
Module time:
	user time   =       0.32 seconds =       0.01 minutes
	system time =       0.01 seconds =       0.00 minutes
	total time  =          1 seconds =       0.02 minutes
Total time:
	user time   =       0.32 seconds =       0.01 minutes
	system time =       0.01 seconds =       0.00 minutes
	total time  =          1 seconds =       0.02 minutes

*** tstart() called on adabbott
*** at Fri Jul 19 17:52:16 2019


         ------------------------------------------------------------
                                   SCF GRAD                          
                          Rob Parrish, Justin Turney,                
                       Andy Simmonett, and Alex Sokolov              
         ------------------------------------------------------------

  ==> Geometry <==

    Molecular point group: cs
    Full point group: Cs

    Geometry (in Angstrom), charge = 0, multiplicity = 1:

       Center              X                  Y                   Z               Mass       
    ------------   -----------------  -----------------  -----------------  -----------------
         H            0.049668318971    -0.949733342070     0.000000000000     1.007825032230
         H           -0.837940584329     0.416477098430     0.000000000000     1.007825032230
         O            0.049668318971     0.033599991230     0.000000000000    15.994914619570

  Nuclear repulsion =    9.009370766041283

  ==> Basis Set <==

  Basis Set: 6-31G
    Blend: 6-31G
    Number of shells: 9
    Number of basis function: 13
    Number of Cartesian functions: 13
    Spherical Harmonics?: false
    Max angular momentum: 1

  ==> DirectJKGrad: Integral-Direct SCF Gradients <==

    Gradient:                    1
    J tasked:                  Yes
    K tasked:                  Yes
    wK tasked:                  No
    Integrals threads:           1
    Schwarz Cutoff:          0E+00


  -Total Gradient:
     Atom            X                  Y                   Z
    ------   -----------------  -----------------  -----------------
       1        0.004805737277    -0.034549542977     0.000000000000
       2       -0.015115006465     0.011843989978     0.000000000000
       3        0.010309269188     0.022705552999     0.000000000000


*** tstop() called on adabbott at Fri Jul 19 17:52:16 2019
Module time:
	user time   =       0.05 seconds =       0.00 minutes
	system time =       0.00 seconds =       0.00 minutes
	total time  =          0 seconds =       0.00 minutes
Total time:
	user time   =       0.37 seconds =       0.01 minutes
	system time =       0.01 seconds =       0.00 minutes
	total time  =          1 seconds =       0.02 minutes

    Psi4 stopped on: Friday, 19 July 2019 05:52PM
    Psi4 wall time for execution: 0:00:00.39

*** Psi4 exiting successfully. Buy a developer a beer!
