
    -----------------------------------------------------------------------
          Psi4: An Open-Source Ab Initio Electronic Structure Package
                               Psi4 1.3.2 release

                         Git: Rev {HEAD} ecbda83 


    R. M. Parrish, L. A. Burns, D. G. A. Smith, A. C. Simmonett,
    A. E. DePrince III, E. G. Hohenstein, U. Bozkaya, A. Yu. Sokolov,
    R. Di Remigio, R. M. Richard, J. F. Gonthier, A. M. James,
    H. R. McAlexander, A. Kumar, M. Saitow, X. Wang, B. P. Pritchard,
    P. Verma, H. F. Schaefer III, K. Patkowski, R. A. King, E. F. Valeev,
    F. A. Evangelista, J. M. Turney, T. D. Crawford, and C. D. Sherrill,
    J. Chem. Theory Comput. 13(7) pp 3185--3197 (2017).
    (doi: 10.1021/acs.jctc.7b00174)


                         Additional Contributions by
    P. Kraus, H. Kruse, M. H. Lechner, M. C. Schieber, R. A. Shaw,
    A. Alenaizan, R. Galvelis, Z. L. Glick, S. Lehtola, and J. P. Misiewicz

    -----------------------------------------------------------------------


    Psi4 started on: Monday, 22 July 2019 01:02PM

    Process ID: 18225
    Host:       adabbott
    PSIDATADIR: /home/adabbott/anaconda3/envs/peslearn/share/psi4
    Memory:     500.0 MiB
    Threads:    1
    
  ==> Input File <==

--------------------------------------------------------------------------
# density fitted hartree fock 
molecule h2o {
0 1
H 0.0000000000 0.0000000000 0.9500000000
H 0.0000000000 0.8263944962 -0.3564717894
O 0.0000000000 0.0000000000 0.0000000000
}

set scf_type pk
set basis 6-31g
gradient('hf')

--------------------------------------------------------------------------
gradient() will perform analytic gradient computation.

*** tstart() called on adabbott
*** at Mon Jul 22 13:02:23 2019

   => Loading Basis Set <=

    Name: 6-31G
    Role: ORBITAL
    Keyword: BASIS
    atoms 1-2 entry H          line    26 file /home/adabbott/anaconda3/envs/peslearn/share/psi4/basis/6-31g.gbs 
    atoms 3   entry O          line   117 file /home/adabbott/anaconda3/envs/peslearn/share/psi4/basis/6-31g.gbs 


         ---------------------------------------------------------
                                   SCF
               by Justin Turney, Rob Parrish, Andy Simmonett
                          and Daniel G. A. Smith
                              RHF Reference
                        1 Threads,    500 MiB Core
         ---------------------------------------------------------

  ==> Geometry <==

    Molecular point group: cs
    Full point group: Cs

    Geometry (in Angstrom), charge = 0, multiplicity = 1:

       Center              X                  Y                   Z               Mass       
    ------------   -----------------  -----------------  -----------------  -----------------
         H            0.046242917664    -0.916787682759     0.000000000000     1.007825032230
         H           -0.780151578536     0.389684106641     0.000000000000     1.007825032230
         O            0.046242917664     0.033212317241     0.000000000000    15.994914619570

  Running in cs symmetry.

  Rotational constants: A =     36.59320  B =     13.96837  C =     10.10940 [cm^-1]
  Rotational constants: A = 1097036.66239  B = 418761.10315  C = 303072.27876 [MHz]
  Nuclear repulsion =    9.502337433779925

  Charge       = 0
  Multiplicity = 1
  Electrons    = 10
  Nalpha       = 5
  Nbeta        = 5

  ==> Algorithm <==

  SCF Algorithm Type is PK.
  DIIS enabled.
  MOM disabled.
  Fractional occupation disabled.
  Guess Type is SAD.
  Energy threshold   = 1.00e-08
  Density threshold  = 1.00e-08
  Integral threshold = 0.00e+00

  ==> Primary Basis <==

  Basis Set: 6-31G
    Blend: 6-31G
    Number of shells: 9
    Number of basis function: 13
    Number of Cartesian functions: 13
    Spherical Harmonics?: false
    Max angular momentum: 1

  ==> Pre-Iterations <==

   -------------------------------------------------------
    Irrep   Nso     Nmo     Nalpha   Nbeta   Ndocc  Nsocc
   -------------------------------------------------------
     A'        11      11       0       0       0       0
     A"         2       2       0       0       0       0
   -------------------------------------------------------
    Total      13      13       5       5       5       0
   -------------------------------------------------------

  ==> Integral Setup <==

  Using in-core PK algorithm.
   Calculation information:
      Number of atoms:                   3
      Number of AO shells:               9
      Number of primitives:             22
      Number of atomic orbitals:        13
      Number of basis functions:        13

      Integral cutoff                 1.00e-12
      Number of threads:                 1

  Performing in-core PK
  Using 8372 doubles for integral storage.
  We computed 1035 shell quartets total.
  Whereas there are 1035 unique shell quartets.

  ==> DiskJK: Disk-Based J/K Matrices <==

    J tasked:                  Yes
    K tasked:                  Yes
    wK tasked:                  No
    Memory [MiB]:              375
    Schwarz Cutoff:          1E-12

    OpenMP threads:              1

  Minimum eigenvalue in the overlap matrix is 6.5366674884E-02.
  Using Symmetric Orthogonalization.

  SCF Guess: Superposition of Atomic Densities via on-the-fly atomic UHF.

  ==> Iterations <==

                        Total Energy        Delta E     RMS |[F,P]|

   @RHF iter SAD:   -75.56179434132839   -7.55618e+01   0.00000e+00 
   @RHF iter   1:   -75.91260556863006   -3.50811e-01   3.62381e-02 DIIS
   @RHF iter   2:   -75.96498237939811   -5.23768e-02   1.99970e-02 DIIS
   @RHF iter   3:   -75.98215222147829   -1.71698e-02   1.66447e-03 DIIS
   @RHF iter   4:   -75.98243313797478   -2.80916e-04   2.70305e-04 DIIS
   @RHF iter   5:   -75.98244259649087   -9.45852e-06   4.65663e-05 DIIS
   @RHF iter   6:   -75.98244299732031   -4.00829e-07   9.35902e-06 DIIS
   @RHF iter   7:   -75.98244301380669   -1.64864e-08   1.56593e-06 DIIS
   @RHF iter   8:   -75.98244301420249   -3.95801e-10   2.38665e-07 DIIS
   @RHF iter   9:   -75.98244301420823   -5.74119e-12   2.42966e-08 DIIS
   @RHF iter  10:   -75.98244301420824   -1.42109e-14   3.01548e-09 DIIS
  Energy and wave function converged.


  ==> Post-Iterations <==

    Orbital Energies [Eh]
    ---------------------

    Doubly Occupied:                                                      

       1Ap   -20.547399     2Ap    -1.364832     3Ap    -0.744390  
       4Ap    -0.548376     1App   -0.499216  

    Virtual:                                                              

       5Ap     0.212786     6Ap     0.308982     7Ap     1.121082  
       2App    1.167558     8Ap     1.181800     9Ap     1.210071  
      10Ap     1.402967    11Ap     1.674511  

    Final Occupation by Irrep:
             Ap   App 
    DOCC [     4,    1 ]

  @RHF Final Energy:   -75.98244301420824

   => Energetics <=

    Nuclear Repulsion Energy =              9.5023374337799247
    One-Electron Energy =                -123.5611340338980568
    Two-Electron Energy =                  38.0763535859098852
    Total Energy =                        -75.9824430142082434

Computation Completed


Properties will be evaluated at   0.000000,   0.000000,   0.000000 [a0]

Properties computed using the SCF density matrix

  Nuclear Dipole Moment: [e a0]
     X:    -0.6878      Y:    -0.4940      Z:     0.0000

  Electronic Dipole Moment: [e a0]
     X:    -0.1103      Y:    -0.0499      Z:     0.0000

  Dipole Moment: [e a0]
     X:    -0.7981      Y:    -0.5439      Z:     0.0000     Total:     0.9658

  Dipole Moment: [D]
     X:    -2.0286      Y:    -1.3825      Z:     0.0000     Total:     2.4549


*** tstop() called on adabbott at Mon Jul 22 13:02:23 2019
Module time:
	user time   =       0.30 seconds =       0.01 minutes
	system time =       0.00 seconds =       0.00 minutes
	total time  =          0 seconds =       0.00 minutes
Total time:
	user time   =       0.30 seconds =       0.01 minutes
	system time =       0.00 seconds =       0.00 minutes
	total time  =          0 seconds =       0.00 minutes

*** tstart() called on adabbott
*** at Mon Jul 22 13:02:23 2019


         ------------------------------------------------------------
                                   SCF GRAD                          
                          Rob Parrish, Justin Turney,                
                       Andy Simmonett, and Alex Sokolov              
         ------------------------------------------------------------

  ==> Geometry <==

    Molecular point group: cs
    Full point group: Cs

    Geometry (in Angstrom), charge = 0, multiplicity = 1:

       Center              X                  Y                   Z               Mass       
    ------------   -----------------  -----------------  -----------------  -----------------
         H            0.046242917664    -0.916787682759     0.000000000000     1.007825032230
         H           -0.780151578536     0.389684106641     0.000000000000     1.007825032230
         O            0.046242917664     0.033212317241     0.000000000000    15.994914619570

  Nuclear repulsion =    9.502337433779925

  ==> Basis Set <==

  Basis Set: 6-31G
    Blend: 6-31G
    Number of shells: 9
    Number of basis function: 13
    Number of Cartesian functions: 13
    Spherical Harmonics?: false
    Max angular momentum: 1

  ==> DirectJKGrad: Integral-Direct SCF Gradients <==

    Gradient:                    1
    J tasked:                  Yes
    K tasked:                  Yes
    wK tasked:                  No
    Integrals threads:           1
    Schwarz Cutoff:          0E+00


  -Total Gradient:
     Atom            X                  Y                   Z
    ------   -----------------  -----------------  -----------------
       1        0.001036962361    -0.002599595815     0.000000000000
       2        0.060443423524    -0.024880685957     0.000000000000
       3       -0.061480385885     0.027480281771     0.000000000000


*** tstop() called on adabbott at Mon Jul 22 13:02:23 2019
Module time:
	user time   =       0.04 seconds =       0.00 minutes
	system time =       0.00 seconds =       0.00 minutes
	total time  =          0 seconds =       0.00 minutes
Total time:
	user time   =       0.34 seconds =       0.01 minutes
	system time =       0.00 seconds =       0.00 minutes
	total time  =          0 seconds =       0.00 minutes

    Psi4 stopped on: Monday, 22 July 2019 01:02PM
    Psi4 wall time for execution: 0:00:00.36

*** Psi4 exiting successfully. Buy a developer a beer!
