
    -----------------------------------------------------------------------
          Psi4: An Open-Source Ab Initio Electronic Structure Package
                               Psi4 1.3.2 release

                         Git: Rev {HEAD} ecbda83 


    R. M. Parrish, L. A. Burns, D. G. A. Smith, A. C. Simmonett,
    A. E. DePrince III, E. G. Hohenstein, U. Bozkaya, A. Yu. Sokolov,
    R. Di Remigio, R. M. Richard, J. F. Gonthier, A. M. James,
    H. R. McAlexander, A. Kumar, M. Saitow, X. Wang, B. P. Pritchard,
    P. Verma, H. F. Schaefer III, K. Patkowski, R. A. King, E. F. Valeev,
    F. A. Evangelista, J. M. Turney, T. D. Crawford, and C. D. Sherrill,
    J. Chem. Theory Comput. 13(7) pp 3185--3197 (2017).
    (doi: 10.1021/acs.jctc.7b00174)


                         Additional Contributions by
    P. Kraus, H. Kruse, M. H. Lechner, M. C. Schieber, R. A. Shaw,
    A. Alenaizan, R. Galvelis, Z. L. Glick, S. Lehtola, and J. P. Misiewicz

    -----------------------------------------------------------------------


    Psi4 started on: Monday, 22 July 2019 01:01PM

    Process ID: 18041
    Host:       adabbott
    PSIDATADIR: /home/adabbott/anaconda3/envs/peslearn/share/psi4
    Memory:     500.0 MiB
    Threads:    1
    
  ==> Input File <==

--------------------------------------------------------------------------
# density fitted hartree fock 
molecule h2o {
0 1
H 0.0000000000 0.0000000000 1.0000000000
H 0.0000000000 0.8613849024 -0.3135184647
O 0.0000000000 0.0000000000 0.0000000000
}

set scf_type pk
set basis 6-31g
gradient('hf')

--------------------------------------------------------------------------
gradient() will perform analytic gradient computation.

*** tstart() called on adabbott
*** at Mon Jul 22 13:01:50 2019

   => Loading Basis Set <=

    Name: 6-31G
    Role: ORBITAL
    Keyword: BASIS
    atoms 1-2 entry H          line    26 file /home/adabbott/anaconda3/envs/peslearn/share/psi4/basis/6-31g.gbs 
    atoms 3   entry O          line   117 file /home/adabbott/anaconda3/envs/peslearn/share/psi4/basis/6-31g.gbs 


         ---------------------------------------------------------
                                   SCF
               by Justin Turney, Rob Parrish, Andy Simmonett
                          and Daniel G. A. Smith
                              RHF Reference
                        1 Threads,    500 MiB Core
         ---------------------------------------------------------

  ==> Geometry <==

    Molecular point group: cs
    Full point group: Cs

    Geometry (in Angstrom), charge = 0, multiplicity = 1:

       Center              X                  Y                   Z               Mass       
    ------------   -----------------  -----------------  -----------------  -----------------
         H            0.048200891102    -0.961586252981     0.000000000000     1.007825032230
         H           -0.813184011298     0.351932211719     0.000000000000     1.007825032230
         O            0.048200891102     0.038413747019     0.000000000000    15.994914619570

  Running in cs symmetry.

  Rotational constants: A =     31.51984  B =     13.47068  C =      9.43740 [cm^-1]
  Rotational constants: A = 944941.00279  B = 403840.91232  C = 282926.27027 [MHz]
  Nuclear repulsion =    9.188582097259165

  Charge       = 0
  Multiplicity = 1
  Electrons    = 10
  Nalpha       = 5
  Nbeta        = 5

  ==> Algorithm <==

  SCF Algorithm Type is PK.
  DIIS enabled.
  MOM disabled.
  Fractional occupation disabled.
  Guess Type is SAD.
  Energy threshold   = 1.00e-08
  Density threshold  = 1.00e-08
  Integral threshold = 0.00e+00

  ==> Primary Basis <==

  Basis Set: 6-31G
    Blend: 6-31G
    Number of shells: 9
    Number of basis function: 13
    Number of Cartesian functions: 13
    Spherical Harmonics?: false
    Max angular momentum: 1

  ==> Pre-Iterations <==

   -------------------------------------------------------
    Irrep   Nso     Nmo     Nalpha   Nbeta   Ndocc  Nsocc
   -------------------------------------------------------
     A'        11      11       0       0       0       0
     A"         2       2       0       0       0       0
   -------------------------------------------------------
    Total      13      13       5       5       5       0
   -------------------------------------------------------

  ==> Integral Setup <==

  Using in-core PK algorithm.
   Calculation information:
      Number of atoms:                   3
      Number of AO shells:               9
      Number of primitives:             22
      Number of atomic orbitals:        13
      Number of basis functions:        13

      Integral cutoff                 1.00e-12
      Number of threads:                 1

  Performing in-core PK
  Using 8372 doubles for integral storage.
  We computed 1035 shell quartets total.
  Whereas there are 1035 unique shell quartets.

  ==> DiskJK: Disk-Based J/K Matrices <==

    J tasked:                  Yes
    K tasked:                  Yes
    wK tasked:                  No
    Memory [MiB]:              375
    Schwarz Cutoff:          1E-12

    OpenMP threads:              1

  Minimum eigenvalue in the overlap matrix is 6.8309867936E-02.
  Using Symmetric Orthogonalization.

  SCF Guess: Superposition of Atomic Densities via on-the-fly atomic UHF.

  ==> Iterations <==

                        Total Energy        Delta E     RMS |[F,P]|

   @RHF iter SAD:   -75.51541824230459   -7.55154e+01   0.00000e+00 
   @RHF iter   1:   -75.90920296268230   -3.93785e-01   3.61611e-02 DIIS
   @RHF iter   2:   -75.96245817043751   -5.32552e-02   2.09054e-02 DIIS
   @RHF iter   3:   -75.98128353913656   -1.88254e-02   1.73742e-03 DIIS
   @RHF iter   4:   -75.98162073073271   -3.37192e-04   3.21652e-04 DIIS
   @RHF iter   5:   -75.98163379448013   -1.30637e-05   5.04049e-05 DIIS
   @RHF iter   6:   -75.98163425259531   -4.58115e-07   1.06863e-05 DIIS
   @RHF iter   7:   -75.98163427434588   -2.17506e-08   1.94686e-06 DIIS
   @RHF iter   8:   -75.98163427501341   -6.67526e-10   3.11952e-07 DIIS
   @RHF iter   9:   -75.98163427502435   -1.09424e-11   3.31251e-08 DIIS
   @RHF iter  10:   -75.98163427502453   -1.84741e-13   4.68705e-09 DIIS
  Energy and wave function converged.


  ==> Post-Iterations <==

    Orbital Energies [Eh]
    ---------------------

    Doubly Occupied:                                                      

       1Ap   -20.556216     2Ap    -1.351517     3Ap    -0.719028  
       4Ap    -0.549545     1App   -0.498681  

    Virtual:                                                              

       5Ap     0.203008     6Ap     0.300985     7Ap     1.074568  
       2App    1.166597     8Ap     1.175468     9Ap     1.208333  
      10Ap     1.390563    11Ap     1.680020  

    Final Occupation by Irrep:
             Ap   App 
    DOCC [     4,    1 ]

  @RHF Final Energy:   -75.98163427502453

   => Energetics <=

    Nuclear Repulsion Energy =              9.1885820972591645
    One-Electron Energy =                -122.9904582990807569
    Two-Electron Energy =                  37.8202419267970384
    Total Energy =                        -75.9816342750245468

Computation Completed


Properties will be evaluated at   0.000000,   0.000000,   0.000000 [a0]

Properties computed using the SCF density matrix

  Nuclear Dipole Moment: [e a0]
     X:    -0.7169      Y:    -0.5713      Z:     0.0000

  Electronic Dipole Moment: [e a0]
     X:    -0.0874      Y:    -0.0171      Z:     0.0000

  Dipole Moment: [e a0]
     X:    -0.8043      Y:    -0.5885      Z:     0.0000     Total:     0.9966

  Dipole Moment: [D]
     X:    -2.0444      Y:    -1.4958      Z:     0.0000     Total:     2.5331


*** tstop() called on adabbott at Mon Jul 22 13:01:50 2019
Module time:
	user time   =       0.31 seconds =       0.01 minutes
	system time =       0.00 seconds =       0.00 minutes
	total time  =          0 seconds =       0.00 minutes
Total time:
	user time   =       0.31 seconds =       0.01 minutes
	system time =       0.00 seconds =       0.00 minutes
	total time  =          0 seconds =       0.00 minutes

*** tstart() called on adabbott
*** at Mon Jul 22 13:01:50 2019


         ------------------------------------------------------------
                                   SCF GRAD                          
                          Rob Parrish, Justin Turney,                
                       Andy Simmonett, and Alex Sokolov              
         ------------------------------------------------------------

  ==> Geometry <==

    Molecular point group: cs
    Full point group: Cs

    Geometry (in Angstrom), charge = 0, multiplicity = 1:

       Center              X                  Y                   Z               Mass       
    ------------   -----------------  -----------------  -----------------  -----------------
         H            0.048200891102    -0.961586252981     0.000000000000     1.007825032230
         H           -0.813184011298     0.351932211719     0.000000000000     1.007825032230
         O            0.048200891102     0.038413747019     0.000000000000    15.994914619570

  Nuclear repulsion =    9.188582097259165

  ==> Basis Set <==

  Basis Set: 6-31G
    Blend: 6-31G
    Number of shells: 9
    Number of basis function: 13
    Number of Cartesian functions: 13
    Spherical Harmonics?: false
    Max angular momentum: 1

  ==> DirectJKGrad: Integral-Direct SCF Gradients <==

    Gradient:                    1
    J tasked:                  Yes
    K tasked:                  Yes
    wK tasked:                  No
    Integrals threads:           1
    Schwarz Cutoff:          0E+00


  -Total Gradient:
     Atom            X                  Y                   Z
    ------   -----------------  -----------------  -----------------
       1       -0.001741516571    -0.047053493613     0.000000000000
       2        0.040179534024    -0.016645919816     0.000000000000
       3       -0.038438017453     0.063699413429     0.000000000000


*** tstop() called on adabbott at Mon Jul 22 13:01:50 2019
Module time:
	user time   =       0.04 seconds =       0.00 minutes
	system time =       0.00 seconds =       0.00 minutes
	total time  =          0 seconds =       0.00 minutes
Total time:
	user time   =       0.35 seconds =       0.01 minutes
	system time =       0.00 seconds =       0.00 minutes
	total time  =          0 seconds =       0.00 minutes

    Psi4 stopped on: Monday, 22 July 2019 01:01PM
    Psi4 wall time for execution: 0:00:00.37

*** Psi4 exiting successfully. Buy a developer a beer!
