
    -----------------------------------------------------------------------
          Psi4: An Open-Source Ab Initio Electronic Structure Package
                               Psi4 1.3.2 release

                         Git: Rev {HEAD} ecbda83 


    R. M. Parrish, L. A. Burns, D. G. A. Smith, A. C. Simmonett,
    A. E. DePrince III, E. G. Hohenstein, U. Bozkaya, A. Yu. Sokolov,
    R. Di Remigio, R. M. Richard, J. F. Gonthier, A. M. James,
    H. R. McAlexander, A. Kumar, M. Saitow, X. Wang, B. P. Pritchard,
    P. Verma, H. F. Schaefer III, K. Patkowski, R. A. King, E. F. Valeev,
    F. A. Evangelista, J. M. Turney, T. D. Crawford, and C. D. Sherrill,
    J. Chem. Theory Comput. 13(7) pp 3185--3197 (2017).
    (doi: 10.1021/acs.jctc.7b00174)


                         Additional Contributions by
    P. Kraus, H. Kruse, M. H. Lechner, M. C. Schieber, R. A. Shaw,
    A. Alenaizan, R. Galvelis, Z. L. Glick, S. Lehtola, and J. P. Misiewicz

    -----------------------------------------------------------------------


    Psi4 started on: Monday, 22 July 2019 01:02PM

    Process ID: 18171
    Host:       adabbott
    PSIDATADIR: /home/adabbott/anaconda3/envs/peslearn/share/psi4
    Memory:     500.0 MiB
    Threads:    1
    
  ==> Input File <==

--------------------------------------------------------------------------
# density fitted hartree fock 
molecule h2o {
0 1
H 0.0000000000 0.0000000000 0.9833333333
H 0.0000000000 0.8371578903 -0.4833333333
O 0.0000000000 0.0000000000 0.0000000000
}

set scf_type pk
set basis 6-31g
gradient('hf')

--------------------------------------------------------------------------
gradient() will perform analytic gradient computation.

*** tstart() called on adabbott
*** at Mon Jul 22 13:02:12 2019

   => Loading Basis Set <=

    Name: 6-31G
    Role: ORBITAL
    Keyword: BASIS
    atoms 1-2 entry H          line    26 file /home/adabbott/anaconda3/envs/peslearn/share/psi4/basis/6-31g.gbs 
    atoms 3   entry O          line   117 file /home/adabbott/anaconda3/envs/peslearn/share/psi4/basis/6-31g.gbs 


         ---------------------------------------------------------
                                   SCF
               by Justin Turney, Rob Parrish, Andy Simmonett
                          and Daniel G. A. Smith
                              RHF Reference
                        1 Threads,    500 MiB Core
         ---------------------------------------------------------

  ==> Geometry <==

    Molecular point group: cs
    Full point group: Cs

    Geometry (in Angstrom), charge = 0, multiplicity = 1:

       Center              X                  Y                   Z               Mass       
    ------------   -----------------  -----------------  -----------------  -----------------
         H            0.046845209608    -0.955354614978     0.000000000000     1.007825032230
         H           -0.790312680692     0.511312051622     0.000000000000     1.007825032230
         O            0.046845209608     0.027978718322     0.000000000000    15.994914619570

  Running in cs symmetry.

  Rotational constants: A =     39.63900  B =     11.72814  C =      9.05037 [cm^-1]
  Rotational constants: A = 1188347.30943  B = 351600.80465  C = 271323.34290 [MHz]
  Nuclear repulsion =    8.997918784967005

  Charge       = 0
  Multiplicity = 1
  Electrons    = 10
  Nalpha       = 5
  Nbeta        = 5

  ==> Algorithm <==

  SCF Algorithm Type is PK.
  DIIS enabled.
  MOM disabled.
  Fractional occupation disabled.
  Guess Type is SAD.
  Energy threshold   = 1.00e-08
  Density threshold  = 1.00e-08
  Integral threshold = 0.00e+00

  ==> Primary Basis <==

  Basis Set: 6-31G
    Blend: 6-31G
    Number of shells: 9
    Number of basis function: 13
    Number of Cartesian functions: 13
    Spherical Harmonics?: false
    Max angular momentum: 1

  ==> Pre-Iterations <==

   -------------------------------------------------------
    Irrep   Nso     Nmo     Nalpha   Nbeta   Ndocc  Nsocc
   -------------------------------------------------------
     A'        11      11       0       0       0       0
     A"         2       2       0       0       0       0
   -------------------------------------------------------
    Total      13      13       5       5       5       0
   -------------------------------------------------------

  ==> Integral Setup <==

  Using in-core PK algorithm.
   Calculation information:
      Number of atoms:                   3
      Number of AO shells:               9
      Number of primitives:             22
      Number of atomic orbitals:        13
      Number of basis functions:        13

      Integral cutoff                 1.00e-12
      Number of threads:                 1

  Performing in-core PK
  Using 8372 doubles for integral storage.
  We computed 1035 shell quartets total.
  Whereas there are 1035 unique shell quartets.

  ==> DiskJK: Disk-Based J/K Matrices <==

    J tasked:                  Yes
    K tasked:                  Yes
    wK tasked:                  No
    Memory [MiB]:              375
    Schwarz Cutoff:          1E-12

    OpenMP threads:              1

  Minimum eigenvalue in the overlap matrix is 7.4476879764E-02.
  Using Symmetric Orthogonalization.

  SCF Guess: Superposition of Atomic Densities via on-the-fly atomic UHF.

  ==> Iterations <==

                        Total Energy        Delta E     RMS |[F,P]|

   @RHF iter SAD:   -75.48313843862998   -7.54831e+01   0.00000e+00 
   @RHF iter   1:   -75.91248151183976   -4.29343e-01   3.56861e-02 DIIS
   @RHF iter   2:   -75.96250999521982   -5.00285e-02   2.08359e-02 DIIS
   @RHF iter   3:   -75.98130182665832   -1.87918e-02   1.72349e-03 DIIS
   @RHF iter   4:   -75.98165203387687   -3.50207e-04   3.35949e-04 DIIS
   @RHF iter   5:   -75.98166835136931   -1.63175e-05   5.72973e-05 DIIS
   @RHF iter   6:   -75.98166903253959   -6.81170e-07   1.39571e-05 DIIS
   @RHF iter   7:   -75.98166907312481   -4.05852e-08   2.14122e-06 DIIS
   @RHF iter   8:   -75.98166907388988   -7.65070e-10   2.99635e-07 DIIS
   @RHF iter   9:   -75.98166907389817   -8.29914e-12   3.11759e-08 DIIS
   @RHF iter  10:   -75.98166907389835   -1.70530e-13   3.55338e-09 DIIS
  Energy and wave function converged.


  ==> Post-Iterations <==

    Orbital Energies [Eh]
    ---------------------

    Doubly Occupied:                                                      

       1Ap   -20.550886     2Ap    -1.330382     3Ap    -0.722966  
       4Ap    -0.528759     1App   -0.491928  

    Virtual:                                                              

       5Ap     0.200017     6Ap     0.298084     7Ap     1.076610  
       8Ap     1.152490     2App    1.171092     9Ap     1.204060  
      10Ap     1.398136    11Ap     1.655083  

    Final Occupation by Irrep:
             Ap   App 
    DOCC [     4,    1 ]

  @RHF Final Energy:   -75.98166907389835

   => Energetics <=

    Nuclear Repulsion Energy =              8.9979187849670055
    One-Electron Energy =                -122.7093350533446880
    Two-Electron Energy =                  37.7297471944793443
    Total Energy =                        -75.9816690738983453

Computation Completed


Properties will be evaluated at   0.000000,   0.000000,   0.000000 [a0]

Properties computed using the SCF density matrix

  Nuclear Dipole Moment: [e a0]
     X:    -0.6968      Y:    -0.4161      Z:     0.0000

  Electronic Dipole Moment: [e a0]
     X:    -0.0973      Y:    -0.0495      Z:     0.0000

  Dipole Moment: [e a0]
     X:    -0.7941      Y:    -0.4656      Z:     0.0000     Total:     0.9205

  Dipole Moment: [D]
     X:    -2.0183      Y:    -1.1836      Z:     0.0000     Total:     2.3398


*** tstop() called on adabbott at Mon Jul 22 13:02:13 2019
Module time:
	user time   =       0.31 seconds =       0.01 minutes
	system time =       0.00 seconds =       0.00 minutes
	total time  =          1 seconds =       0.02 minutes
Total time:
	user time   =       0.31 seconds =       0.01 minutes
	system time =       0.00 seconds =       0.00 minutes
	total time  =          1 seconds =       0.02 minutes

*** tstart() called on adabbott
*** at Mon Jul 22 13:02:13 2019


         ------------------------------------------------------------
                                   SCF GRAD                          
                          Rob Parrish, Justin Turney,                
                       Andy Simmonett, and Alex Sokolov              
         ------------------------------------------------------------

  ==> Geometry <==

    Molecular point group: cs
    Full point group: Cs

    Geometry (in Angstrom), charge = 0, multiplicity = 1:

       Center              X                  Y                   Z               Mass       
    ------------   -----------------  -----------------  -----------------  -----------------
         H            0.046845209608    -0.955354614978     0.000000000000     1.007825032230
         H           -0.790312680692     0.511312051622     0.000000000000     1.007825032230
         O            0.046845209608     0.027978718322     0.000000000000    15.994914619570

  Nuclear repulsion =    8.997918784967005

  ==> Basis Set <==

  Basis Set: 6-31G
    Blend: 6-31G
    Number of shells: 9
    Number of basis function: 13
    Number of Cartesian functions: 13
    Spherical Harmonics?: false
    Max angular momentum: 1

  ==> DirectJKGrad: Integral-Direct SCF Gradients <==

    Gradient:                    1
    J tasked:                  Yes
    K tasked:                  Yes
    wK tasked:                  No
    Integrals threads:           1
    Schwarz Cutoff:          0E+00


  -Total Gradient:
     Atom            X                  Y                   Z
    ------   -----------------  -----------------  -----------------
       1        0.014327006670    -0.038609565077     0.000000000000
       2       -0.012217501828     0.023882410742     0.000000000000
       3       -0.002109504842     0.014727154335     0.000000000000


*** tstop() called on adabbott at Mon Jul 22 13:02:13 2019
Module time:
	user time   =       0.04 seconds =       0.00 minutes
	system time =       0.00 seconds =       0.00 minutes
	total time  =          0 seconds =       0.00 minutes
Total time:
	user time   =       0.35 seconds =       0.01 minutes
	system time =       0.00 seconds =       0.00 minutes
	total time  =          1 seconds =       0.02 minutes

    Psi4 stopped on: Monday, 22 July 2019 01:02PM
    Psi4 wall time for execution: 0:00:00.36

*** Psi4 exiting successfully. Buy a developer a beer!
