
Host: adabbott

Timers On : Tue Jul 23 14:17:32 2019
Timers Off: Tue Jul 23 14:17:33 2019

Wall Time:        0.16 seconds

                                                       Time (seconds)
Module                                       User      System        Wall        Calls

--------------------------------------------------------------------------------------

**************************************************************************************

Host: adabbott

Timers On : Tue Jul 23 14:17:56 2019
Timers Off: Tue Jul 23 14:17:57 2019

Wall Time:        1.00 seconds

                                                       Time (seconds)
Module                                       User      System        Wall        Calls

--------------------------------------------------------------------------------------

**************************************************************************************

Host: adabbott

Timers On : Tue Jul 23 14:18:32 2019
Timers Off: Tue Jul 23 14:18:33 2019

Wall Time:        0.99 seconds

                                                       Time (seconds)
Module                                       User      System        Wall        Calls

--------------------------------------------------------------------------------------

**************************************************************************************

Host: adabbott

Timers On : Tue Jul 23 14:18:40 2019
Timers Off: Tue Jul 23 14:18:41 2019

Wall Time:        0.99 seconds

                                                       Time (seconds)
Module                                       User      System        Wall        Calls

--------------------------------------------------------------------------------------

**************************************************************************************

Host: adabbott

Timers On : Tue Jul 23 14:18:53 2019
Timers Off: Tue Jul 23 14:18:54 2019

Wall Time:        1.00 seconds

                                                       Time (seconds)
Module                                       User      System        Wall        Calls

--------------------------------------------------------------------------------------

**************************************************************************************

Host: adabbott

Timers On : Tue Jul 23 14:19:00 2019
Timers Off: Tue Jul 23 14:19:01 2019

Wall Time:        1.00 seconds

                                                       Time (seconds)
Module                                       User      System        Wall        Calls

--------------------------------------------------------------------------------------

**************************************************************************************
