
    -----------------------------------------------------------------------
          Psi4: An Open-Source Ab Initio Electronic Structure Package
                               Psi4 1.3.2 release

                         Git: Rev {HEAD} ecbda83 


    R. M. Parrish, L. A. Burns, D. G. A. Smith, A. C. Simmonett,
    A. E. DePrince III, E. G. Hohenstein, U. Bozkaya, A. Yu. Sokolov,
    R. Di Remigio, R. M. Richard, J. F. Gonthier, A. M. James,
    H. R. McAlexander, A. Kumar, M. Saitow, X. Wang, B. P. Pritchard,
    P. Verma, H. F. Schaefer III, K. Patkowski, R. A. King, E. F. Valeev,
    F. A. Evangelista, J. M. Turney, T. D. Crawford, and C. D. Sherrill,
    J. Chem. Theory Comput. 13(7) pp 3185--3197 (2017).
    (doi: 10.1021/acs.jctc.7b00174)


                         Additional Contributions by
    P. Kraus, H. Kruse, M. H. Lechner, M. C. Schieber, R. A. Shaw,
    A. Alenaizan, R. Galvelis, Z. L. Glick, S. Lehtola, and J. P. Misiewicz

    -----------------------------------------------------------------------


    Psi4 started on: Monday, 22 July 2019 01:04PM

    Process ID: 18753
    Host:       adabbott
    PSIDATADIR: /home/adabbott/anaconda3/envs/peslearn/share/psi4
    Memory:     500.0 MiB
    Threads:    1
    
  ==> Input File <==

--------------------------------------------------------------------------
# density fitted hartree fock 
molecule h2o {
0 1
H 0.0000000000 0.0000000000 0.9000000000
H 0.0000000000 0.8936326403 -0.4487991802
O 0.0000000000 0.0000000000 0.0000000000
}

set scf_type pk
set basis 6-31g
gradient('hf')

--------------------------------------------------------------------------
gradient() will perform analytic gradient computation.

*** tstart() called on adabbott
*** at Mon Jul 22 13:04:07 2019

   => Loading Basis Set <=

    Name: 6-31G
    Role: ORBITAL
    Keyword: BASIS
    atoms 1-2 entry H          line    26 file /home/adabbott/anaconda3/envs/peslearn/share/psi4/basis/6-31g.gbs 
    atoms 3   entry O          line   117 file /home/adabbott/anaconda3/envs/peslearn/share/psi4/basis/6-31g.gbs 


         ---------------------------------------------------------
                                   SCF
               by Justin Turney, Rob Parrish, Andy Simmonett
                          and Daniel G. A. Smith
                              RHF Reference
                        1 Threads,    500 MiB Core
         ---------------------------------------------------------

  ==> Geometry <==

    Molecular point group: cs
    Full point group: Cs

    Geometry (in Angstrom), charge = 0, multiplicity = 1:

       Center              X                  Y                   Z               Mass       
    ------------   -----------------  -----------------  -----------------  -----------------
         H            0.050005391853    -0.874751958712     0.000000000000     1.007825032230
         H           -0.843627248447     0.474047221488     0.000000000000     1.007825032230
         O            0.050005391853     0.025248041288     0.000000000000    15.994914619570

  Running in cs symmetry.

  Rotational constants: A =     38.37972  B =     12.69005  C =      9.53677 [cm^-1]
  Rotational constants: A = 1150595.02071  B = 380438.06513  C = 285905.08427 [MHz]
  Nuclear repulsion =    9.264276825460588

  Charge       = 0
  Multiplicity = 1
  Electrons    = 10
  Nalpha       = 5
  Nbeta        = 5

  ==> Algorithm <==

  SCF Algorithm Type is PK.
  DIIS enabled.
  MOM disabled.
  Fractional occupation disabled.
  Guess Type is SAD.
  Energy threshold   = 1.00e-08
  Density threshold  = 1.00e-08
  Integral threshold = 0.00e+00

  ==> Primary Basis <==

  Basis Set: 6-31G
    Blend: 6-31G
    Number of shells: 9
    Number of basis function: 13
    Number of Cartesian functions: 13
    Spherical Harmonics?: false
    Max angular momentum: 1

  ==> Pre-Iterations <==

   -------------------------------------------------------
    Irrep   Nso     Nmo     Nalpha   Nbeta   Ndocc  Nsocc
   -------------------------------------------------------
     A'        11      11       0       0       0       0
     A"         2       2       0       0       0       0
   -------------------------------------------------------
    Total      13      13       5       5       5       0
   -------------------------------------------------------

  ==> Integral Setup <==

  Using in-core PK algorithm.
   Calculation information:
      Number of atoms:                   3
      Number of AO shells:               9
      Number of primitives:             22
      Number of atomic orbitals:        13
      Number of basis functions:        13

      Integral cutoff                 1.00e-12
      Number of threads:                 1

  Performing in-core PK
  Using 8372 doubles for integral storage.
  We computed 1035 shell quartets total.
  Whereas there are 1035 unique shell quartets.

  ==> DiskJK: Disk-Based J/K Matrices <==

    J tasked:                  Yes
    K tasked:                  Yes
    wK tasked:                  No
    Memory [MiB]:              375
    Schwarz Cutoff:          1E-12

    OpenMP threads:              1

  Minimum eigenvalue in the overlap matrix is 6.8373536541E-02.
  Using Symmetric Orthogonalization.

  SCF Guess: Superposition of Atomic Densities via on-the-fly atomic UHF.

  ==> Iterations <==

                        Total Energy        Delta E     RMS |[F,P]|

   @RHF iter SAD:   -75.52056647439164   -7.55206e+01   0.00000e+00 
   @RHF iter   1:   -75.90900987503221   -3.88443e-01   3.60857e-02 DIIS
   @RHF iter   2:   -75.96068500268439   -5.16751e-02   2.05457e-02 DIIS
   @RHF iter   3:   -75.97888178313242   -1.81968e-02   1.71165e-03 DIIS
   @RHF iter   4:   -75.97921152665816   -3.29744e-04   3.19615e-04 DIIS
   @RHF iter   5:   -75.97922591720616   -1.43905e-05   5.51637e-05 DIIS
   @RHF iter   6:   -75.97922652258501   -6.05379e-07   1.23863e-05 DIIS
   @RHF iter   7:   -75.97922655287284   -3.02878e-08   1.97334e-06 DIIS
   @RHF iter   8:   -75.97922655351010   -6.37257e-10   2.90282e-07 DIIS
   @RHF iter   9:   -75.97922655351873   -8.62599e-12   3.15108e-08 DIIS
   @RHF iter  10:   -75.97922655351886   -1.27898e-13   4.68312e-09 DIIS
  Energy and wave function converged.


  ==> Post-Iterations <==

    Orbital Energies [Eh]
    ---------------------

    Doubly Occupied:                                                      

       1Ap   -20.549111     2Ap    -1.349423     3Ap    -0.734019  
       4Ap    -0.538170     1App   -0.495768  

    Virtual:                                                              

       5Ap     0.205009     6Ap     0.304043     7Ap     1.088739  
       2App    1.169249     8Ap     1.172000     9Ap     1.214115  
      10Ap     1.402063    11Ap     1.666488  

    Final Occupation by Irrep:
             Ap   App 
    DOCC [     4,    1 ]

  @RHF Final Energy:   -75.97922655351886

   => Energetics <=

    Nuclear Repulsion Energy =              9.2642768254605876
    One-Electron Energy =                -123.1540266217264730
    Two-Electron Energy =                  37.9105232427470185
    Total Energy =                        -75.9792265535188704

Computation Completed


Properties will be evaluated at   0.000000,   0.000000,   0.000000 [a0]

Properties computed using the SCF density matrix

  Nuclear Dipole Moment: [e a0]
     X:    -0.7438      Y:    -0.3755      Z:     0.0000

  Electronic Dipole Moment: [e a0]
     X:    -0.0778      Y:    -0.0906      Z:     0.0000

  Dipole Moment: [e a0]
     X:    -0.8216      Y:    -0.4662      Z:     0.0000     Total:     0.9446

  Dipole Moment: [D]
     X:    -2.0882      Y:    -1.1849      Z:     0.0000     Total:     2.4009


*** tstop() called on adabbott at Mon Jul 22 13:04:07 2019
Module time:
	user time   =       0.32 seconds =       0.01 minutes
	system time =       0.00 seconds =       0.00 minutes
	total time  =          0 seconds =       0.00 minutes
Total time:
	user time   =       0.32 seconds =       0.01 minutes
	system time =       0.00 seconds =       0.00 minutes
	total time  =          0 seconds =       0.00 minutes

*** tstart() called on adabbott
*** at Mon Jul 22 13:04:07 2019


         ------------------------------------------------------------
                                   SCF GRAD                          
                          Rob Parrish, Justin Turney,                
                       Andy Simmonett, and Alex Sokolov              
         ------------------------------------------------------------

  ==> Geometry <==

    Molecular point group: cs
    Full point group: Cs

    Geometry (in Angstrom), charge = 0, multiplicity = 1:

       Center              X                  Y                   Z               Mass       
    ------------   -----------------  -----------------  -----------------  -----------------
         H            0.050005391853    -0.874751958712     0.000000000000     1.007825032230
         H           -0.843627248447     0.474047221488     0.000000000000     1.007825032230
         O            0.050005391853     0.025248041288     0.000000000000    15.994914619570

  Nuclear repulsion =    9.264276825460588

  ==> Basis Set <==

  Basis Set: 6-31G
    Blend: 6-31G
    Number of shells: 9
    Number of basis function: 13
    Number of Cartesian functions: 13
    Spherical Harmonics?: false
    Max angular momentum: 1

  ==> DirectJKGrad: Integral-Direct SCF Gradients <==

    Gradient:                    1
    J tasked:                  Yes
    K tasked:                  Yes
    wK tasked:                  No
    Integrals threads:           1
    Schwarz Cutoff:          0E+00


  -Total Gradient:
     Atom            X                  Y                   Z
    ------   -----------------  -----------------  -----------------
       1        0.008898667620     0.064410267847     0.000000000000
       2       -0.042944583588     0.030529655226     0.000000000000
       3        0.034045915968    -0.094939923073     0.000000000000


*** tstop() called on adabbott at Mon Jul 22 13:04:07 2019
Module time:
	user time   =       0.04 seconds =       0.00 minutes
	system time =       0.00 seconds =       0.00 minutes
	total time  =          0 seconds =       0.00 minutes
Total time:
	user time   =       0.36 seconds =       0.01 minutes
	system time =       0.00 seconds =       0.00 minutes
	total time  =          0 seconds =       0.00 minutes

    Psi4 stopped on: Monday, 22 July 2019 01:04PM
    Psi4 wall time for execution: 0:00:00.37

*** Psi4 exiting successfully. Buy a developer a beer!
