
Host: adabbott

Timers On : Mon Jul 22 15:33:34 2019
Timers Off: Mon Jul 22 15:33:35 2019

Wall Time:        0.55 seconds

                                                       Time (seconds)
Module                                       User      System        Wall        Calls
Total PK formation time             :      0.033u      0.000s      0.025w      1 calls
HF: Form core H                     :      0.000u      0.000s      0.001w      1 calls
HF: Form S/X                        :      0.000u      0.000s      0.000w      1 calls
HF: Guess                           :      0.217u      0.000s      0.129w      1 calls
SAD Guess                           :      0.200u      0.000s      0.120w      1 calls
HF: Form G                          :      0.000u      0.000s      0.000w     11 calls
JK: D                               :      0.000u      0.000s      0.000w     11 calls
JK: USO2AO                          :      0.000u      0.000s      0.000w     11 calls
JK: JK                              :      0.000u      0.000s      0.000w     11 calls
PK computes JK                      :      0.000u      0.000s      0.000w     11 calls
JK: AO2USO                          :      0.000u      0.000s      0.000w     11 calls
HF: Form F                          :      0.000u      0.000s      0.000w     11 calls
HF: Form D                          :      0.000u      0.000s      0.000w     11 calls
HF: DIIS                            :      0.000u      0.000s      0.003w     10 calls
DIISManager::add_entry              :      0.000u      0.000s      0.000w     10 calls
DIISManager::extrapolate            :      0.000u      0.000s      0.001w     10 calls
bMatrix setup                       :      0.000u      0.000s      0.000w     10 calls
bMatrix pseudoinverse               :      0.000u      0.000s      0.000w     10 calls
New vector                          :      0.000u      0.000s      0.000w     10 calls
HF: Form C                          :      0.017u      0.000s      0.000w     10 calls
Grad: V T Perturb                   :      0.000u      0.000s      0.003w      1 calls
Grad: S                             :      0.000u      0.000s      0.000w      1 calls
Grad: JK                            :      0.050u      0.000s      0.030w      1 calls
Grad: XC                            :      0.000u      0.000s      0.000w      1 calls

--------------------------------------------------------------------------------------
Total PK formation time             :      0.033u      0.000s      0.025w      1 calls
HF: Form core H                     :      0.000u      0.000s      0.001w      1 calls
HF: Form S/X                        :      0.000u      0.000s      0.000w      1 calls
HF: Guess                           :      0.217u      0.000s      0.129w      1 calls
| SAD Guess                         :      0.200u      0.000s      0.120w      1 calls
HF: Form G                          :      0.000u      0.000s      0.000w     11 calls
| JK: D                             :      0.000u      0.000s      0.000w     11 calls
| JK: USO2AO                        :      0.000u      0.000s      0.000w     11 calls
| JK: JK                            :      0.000u      0.000s      0.000w     11 calls
| | PK computes JK                  :      0.000u      0.000s      0.000w     11 calls
| JK: AO2USO                        :      0.000u      0.000s      0.000w     11 calls
HF: Form F                          :      0.000u      0.000s      0.000w     11 calls
HF: Form D                          :      0.000u      0.000s      0.000w     11 calls
HF: DIIS                            :      0.000u      0.000s      0.003w     10 calls
| DIISManager::add_entry            :      0.000u      0.000s      0.000w     10 calls
| DIISManager::extrapolate          :      0.000u      0.000s      0.001w     10 calls
| | bMatrix setup                   :      0.000u      0.000s      0.000w     10 calls
| | bMatrix pseudoinverse           :      0.000u      0.000s      0.000w     10 calls
| | New vector                      :      0.000u      0.000s      0.000w     10 calls
HF: Form C                          :      0.017u      0.000s      0.000w     10 calls
Grad: V T Perturb                   :      0.000u      0.000s      0.003w      1 calls
Grad: S                             :      0.000u      0.000s      0.000w      1 calls
Grad: JK                            :      0.050u      0.000s      0.030w      1 calls
Grad: XC                            :      0.000u      0.000s      0.000w      1 calls

**************************************************************************************

Host: adabbott

Timers On : Mon Jul 22 15:38:00 2019
Timers Off: Mon Jul 22 15:38:00 2019

Wall Time:        0.56 seconds

                                                       Time (seconds)
Module                                       User      System        Wall        Calls
Total PK formation time             :      0.050u      0.000s      0.025w      1 calls
HF: Form core H                     :      0.000u      0.000s      0.002w      1 calls
HF: Form S/X                        :      0.000u      0.000s      0.000w      1 calls
HF: Guess                           :      0.217u      0.000s      0.130w      1 calls
SAD Guess                           :      0.200u      0.000s      0.122w      1 calls
HF: Form G                          :      0.000u      0.000s      0.000w     11 calls
JK: D                               :      0.000u      0.000s      0.000w     11 calls
JK: USO2AO                          :      0.000u      0.000s      0.000w     11 calls
JK: JK                              :      0.000u      0.000s      0.000w     11 calls
PK computes JK                      :      0.000u      0.000s      0.000w     11 calls
JK: AO2USO                          :      0.000u      0.000s      0.000w     11 calls
HF: Form F                          :      0.000u      0.000s      0.000w     11 calls
HF: Form D                          :      0.000u      0.000s      0.000w     11 calls
HF: DIIS                            :      0.000u      0.000s      0.003w     10 calls
DIISManager::add_entry              :      0.000u      0.000s      0.000w     10 calls
DIISManager::extrapolate            :      0.000u      0.000s      0.001w     10 calls
bMatrix setup                       :      0.000u      0.000s      0.000w     10 calls
bMatrix pseudoinverse               :      0.000u      0.000s      0.000w     10 calls
New vector                          :      0.000u      0.000s      0.000w     10 calls
HF: Form C                          :      0.000u      0.000s      0.000w     10 calls
Grad: V T Perturb                   :      0.000u      0.000s      0.003w      1 calls
Grad: S                             :      0.000u      0.000s      0.000w      1 calls
Grad: JK                            :      0.050u      0.000s      0.030w      1 calls
Grad: XC                            :      0.000u      0.000s      0.000w      1 calls

--------------------------------------------------------------------------------------
Total PK formation time             :      0.050u      0.000s      0.025w      1 calls
HF: Form core H                     :      0.000u      0.000s      0.002w      1 calls
HF: Form S/X                        :      0.000u      0.000s      0.000w      1 calls
HF: Guess                           :      0.217u      0.000s      0.130w      1 calls
| SAD Guess                         :      0.200u      0.000s      0.122w      1 calls
HF: Form G                          :      0.000u      0.000s      0.000w     11 calls
| JK: D                             :      0.000u      0.000s      0.000w     11 calls
| JK: USO2AO                        :      0.000u      0.000s      0.000w     11 calls
| JK: JK                            :      0.000u      0.000s      0.000w     11 calls
| | PK computes JK                  :      0.000u      0.000s      0.000w     11 calls
| JK: AO2USO                        :      0.000u      0.000s      0.000w     11 calls
HF: Form F                          :      0.000u      0.000s      0.000w     11 calls
HF: Form D                          :      0.000u      0.000s      0.000w     11 calls
HF: DIIS                            :      0.000u      0.000s      0.003w     10 calls
| DIISManager::add_entry            :      0.000u      0.000s      0.000w     10 calls
| DIISManager::extrapolate          :      0.000u      0.000s      0.001w     10 calls
| | bMatrix setup                   :      0.000u      0.000s      0.000w     10 calls
| | bMatrix pseudoinverse           :      0.000u      0.000s      0.000w     10 calls
| | New vector                      :      0.000u      0.000s      0.000w     10 calls
HF: Form C                          :      0.000u      0.000s      0.000w     10 calls
Grad: V T Perturb                   :      0.000u      0.000s      0.003w      1 calls
Grad: S                             :      0.000u      0.000s      0.000w      1 calls
Grad: JK                            :      0.050u      0.000s      0.030w      1 calls
Grad: XC                            :      0.000u      0.000s      0.000w      1 calls

**************************************************************************************

Host: adabbott

Timers On : Mon Jul 22 15:38:34 2019
Timers Off: Mon Jul 22 15:38:35 2019

Wall Time:        0.56 seconds

                                                       Time (seconds)
Module                                       User      System        Wall        Calls
Total PK formation time             :      0.050u      0.000s      0.026w      1 calls
HF: Form core H                     :      0.000u      0.000s      0.007w      1 calls
HF: Form S/X                        :      0.000u      0.000s      0.000w      1 calls
HF: Guess                           :      0.217u      0.000s      0.126w      1 calls
SAD Guess                           :      0.200u      0.000s      0.118w      1 calls
HF: Form G                          :      0.000u      0.000s      0.000w     11 calls
JK: D                               :      0.000u      0.000s      0.000w     11 calls
JK: USO2AO                          :      0.000u      0.000s      0.000w     11 calls
JK: JK                              :      0.000u      0.000s      0.000w     11 calls
PK computes JK                      :      0.000u      0.000s      0.000w     11 calls
JK: AO2USO                          :      0.000u      0.000s      0.000w     11 calls
HF: Form F                          :      0.000u      0.000s      0.000w     11 calls
HF: Form D                          :      0.000u      0.000s      0.000w     11 calls
HF: DIIS                            :      0.017u      0.000s      0.003w     10 calls
DIISManager::add_entry              :      0.000u      0.000s      0.000w     10 calls
DIISManager::extrapolate            :      0.000u      0.000s      0.001w     10 calls
bMatrix setup                       :      0.000u      0.000s      0.000w     10 calls
bMatrix pseudoinverse               :      0.000u      0.000s      0.000w     10 calls
New vector                          :      0.000u      0.000s      0.000w     10 calls
HF: Form C                          :      0.000u      0.000s      0.000w     10 calls
Grad: V T Perturb                   :      0.000u      0.000s      0.003w      1 calls
Grad: S                             :      0.000u      0.000s      0.000w      1 calls
Grad: JK                            :      0.050u      0.000s      0.029w      1 calls
Grad: XC                            :      0.000u      0.000s      0.000w      1 calls

--------------------------------------------------------------------------------------
Total PK formation time             :      0.050u      0.000s      0.026w      1 calls
HF: Form core H                     :      0.000u      0.000s      0.007w      1 calls
HF: Form S/X                        :      0.000u      0.000s      0.000w      1 calls
HF: Guess                           :      0.217u      0.000s      0.126w      1 calls
| SAD Guess                         :      0.200u      0.000s      0.118w      1 calls
HF: Form G                          :      0.000u      0.000s      0.000w     11 calls
| JK: D                             :      0.000u      0.000s      0.000w     11 calls
| JK: USO2AO                        :      0.000u      0.000s      0.000w     11 calls
| JK: JK                            :      0.000u      0.000s      0.000w     11 calls
| | PK computes JK                  :      0.000u      0.000s      0.000w     11 calls
| JK: AO2USO                        :      0.000u      0.000s      0.000w     11 calls
HF: Form F                          :      0.000u      0.000s      0.000w     11 calls
HF: Form D                          :      0.000u      0.000s      0.000w     11 calls
HF: DIIS                            :      0.017u      0.000s      0.003w     10 calls
| DIISManager::add_entry            :      0.000u      0.000s      0.000w     10 calls
| DIISManager::extrapolate          :      0.000u      0.000s      0.001w     10 calls
| | bMatrix setup                   :      0.000u      0.000s      0.000w     10 calls
| | bMatrix pseudoinverse           :      0.000u      0.000s      0.000w     10 calls
| | New vector                      :      0.000u      0.000s      0.000w     10 calls
HF: Form C                          :      0.000u      0.000s      0.000w     10 calls
Grad: V T Perturb                   :      0.000u      0.000s      0.003w      1 calls
Grad: S                             :      0.000u      0.000s      0.000w      1 calls
Grad: JK                            :      0.050u      0.000s      0.029w      1 calls
Grad: XC                            :      0.000u      0.000s      0.000w      1 calls

**************************************************************************************

Host: adabbott

Timers On : Mon Jul 22 15:44:30 2019
Timers Off: Mon Jul 22 15:44:31 2019

Wall Time:        0.57 seconds

                                                       Time (seconds)
Module                                       User      System        Wall        Calls
Total PK formation time             :      0.067u      0.000s      0.037w      1 calls
HF: Form core H                     :      0.000u      0.000s      0.004w      1 calls
HF: Form S/X                        :      0.000u      0.000s      0.000w      1 calls
HF: Guess                           :      0.217u      0.000s      0.127w      1 calls
SAD Guess                           :      0.200u      0.000s      0.118w      1 calls
HF: Form G                          :      0.000u      0.000s      0.001w     11 calls
JK: D                               :      0.000u      0.000s      0.000w     11 calls
JK: USO2AO                          :      0.000u      0.000s      0.000w     11 calls
JK: JK                              :      0.000u      0.000s      0.000w     11 calls
PK computes JK                      :      0.000u      0.000s      0.000w     11 calls
JK: AO2USO                          :      0.000u      0.000s      0.000w     11 calls
HF: Form F                          :      0.000u      0.000s      0.000w     11 calls
HF: Form D                          :      0.000u      0.000s      0.000w     11 calls
HF: DIIS                            :      0.000u      0.000s      0.003w     10 calls
DIISManager::add_entry              :      0.000u      0.000s      0.000w     10 calls
DIISManager::extrapolate            :      0.000u      0.000s      0.001w     10 calls
bMatrix setup                       :      0.000u      0.000s      0.000w     10 calls
bMatrix pseudoinverse               :      0.000u      0.000s      0.000w     10 calls
New vector                          :      0.000u      0.000s      0.000w     10 calls
HF: Form C                          :      0.000u      0.000s      0.000w     10 calls
Grad: V T Perturb                   :      0.000u      0.000s      0.003w      1 calls
Grad: S                             :      0.000u      0.000s      0.000w      1 calls
Grad: JK                            :      0.050u      0.000s      0.030w      1 calls
Grad: XC                            :      0.000u      0.000s      0.000w      1 calls

--------------------------------------------------------------------------------------
Total PK formation time             :      0.067u      0.000s      0.037w      1 calls
HF: Form core H                     :      0.000u      0.000s      0.004w      1 calls
HF: Form S/X                        :      0.000u      0.000s      0.000w      1 calls
HF: Guess                           :      0.217u      0.000s      0.127w      1 calls
| SAD Guess                         :      0.200u      0.000s      0.118w      1 calls
HF: Form G                          :      0.000u      0.000s      0.001w     11 calls
| JK: D                             :      0.000u      0.000s      0.000w     11 calls
| JK: USO2AO                        :      0.000u      0.000s      0.000w     11 calls
| JK: JK                            :      0.000u      0.000s      0.000w     11 calls
| | PK computes JK                  :      0.000u      0.000s      0.000w     11 calls
| JK: AO2USO                        :      0.000u      0.000s      0.000w     11 calls
HF: Form F                          :      0.000u      0.000s      0.000w     11 calls
HF: Form D                          :      0.000u      0.000s      0.000w     11 calls
HF: DIIS                            :      0.000u      0.000s      0.003w     10 calls
| DIISManager::add_entry            :      0.000u      0.000s      0.000w     10 calls
| DIISManager::extrapolate          :      0.000u      0.000s      0.001w     10 calls
| | bMatrix setup                   :      0.000u      0.000s      0.000w     10 calls
| | bMatrix pseudoinverse           :      0.000u      0.000s      0.000w     10 calls
| | New vector                      :      0.000u      0.000s      0.000w     10 calls
HF: Form C                          :      0.000u      0.000s      0.000w     10 calls
Grad: V T Perturb                   :      0.000u      0.000s      0.003w      1 calls
Grad: S                             :      0.000u      0.000s      0.000w      1 calls
Grad: JK                            :      0.050u      0.000s      0.030w      1 calls
Grad: XC                            :      0.000u      0.000s      0.000w      1 calls

**************************************************************************************

Host: adabbott

Timers On : Mon Jul 22 15:50:46 2019
Timers Off: Mon Jul 22 15:50:46 2019

Wall Time:        0.65 seconds

                                                       Time (seconds)
Module                                       User      System        Wall        Calls
Total PK formation time             :      0.050u      0.000s      0.025w      1 calls
HF: Form core H                     :      0.000u      0.000s      0.066w      1 calls
HF: Form S/X                        :      0.000u      0.000s      0.000w      1 calls
HF: Guess                           :      0.250u      0.000s      0.151w      1 calls
SAD Guess                           :      0.200u      0.000s      0.118w      1 calls
HF: Form G                          :      0.000u      0.000s      0.001w     11 calls
JK: D                               :      0.000u      0.000s      0.000w     11 calls
JK: USO2AO                          :      0.000u      0.000s      0.000w     11 calls
JK: JK                              :      0.000u      0.000s      0.000w     11 calls
PK computes JK                      :      0.000u      0.000s      0.000w     11 calls
JK: AO2USO                          :      0.000u      0.000s      0.000w     11 calls
HF: Form F                          :      0.000u      0.000s      0.000w     11 calls
HF: Form D                          :      0.000u      0.000s      0.000w     11 calls
HF: DIIS                            :      0.000u      0.000s      0.003w     10 calls
DIISManager::add_entry              :      0.000u      0.000s      0.000w     10 calls
DIISManager::extrapolate            :      0.000u      0.000s      0.001w     10 calls
bMatrix setup                       :      0.000u      0.000s      0.000w     10 calls
bMatrix pseudoinverse               :      0.000u      0.000s      0.000w     10 calls
New vector                          :      0.000u      0.000s      0.000w     10 calls
HF: Form C                          :      0.000u      0.000s      0.000w     10 calls
Grad: V T Perturb                   :      0.000u      0.000s      0.003w      1 calls
Grad: S                             :      0.000u      0.000s      0.000w      1 calls
Grad: JK                            :      0.050u      0.000s      0.031w      1 calls
Grad: XC                            :      0.000u      0.000s      0.000w      1 calls

--------------------------------------------------------------------------------------
Total PK formation time             :      0.050u      0.000s      0.025w      1 calls
HF: Form core H                     :      0.000u      0.000s      0.066w      1 calls
HF: Form S/X                        :      0.000u      0.000s      0.000w      1 calls
HF: Guess                           :      0.250u      0.000s      0.151w      1 calls
| SAD Guess                         :      0.200u      0.000s      0.118w      1 calls
HF: Form G                          :      0.000u      0.000s      0.001w     11 calls
| JK: D                             :      0.000u      0.000s      0.000w     11 calls
| JK: USO2AO                        :      0.000u      0.000s      0.000w     11 calls
| JK: JK                            :      0.000u      0.000s      0.000w     11 calls
| | PK computes JK                  :      0.000u      0.000s      0.000w     11 calls
| JK: AO2USO                        :      0.000u      0.000s      0.000w     11 calls
HF: Form F                          :      0.000u      0.000s      0.000w     11 calls
HF: Form D                          :      0.000u      0.000s      0.000w     11 calls
HF: DIIS                            :      0.000u      0.000s      0.003w     10 calls
| DIISManager::add_entry            :      0.000u      0.000s      0.000w     10 calls
| DIISManager::extrapolate          :      0.000u      0.000s      0.001w     10 calls
| | bMatrix setup                   :      0.000u      0.000s      0.000w     10 calls
| | bMatrix pseudoinverse           :      0.000u      0.000s      0.000w     10 calls
| | New vector                      :      0.000u      0.000s      0.000w     10 calls
HF: Form C                          :      0.000u      0.000s      0.000w     10 calls
Grad: V T Perturb                   :      0.000u      0.000s      0.003w      1 calls
Grad: S                             :      0.000u      0.000s      0.000w      1 calls
Grad: JK                            :      0.050u      0.000s      0.031w      1 calls
Grad: XC                            :      0.000u      0.000s      0.000w      1 calls

**************************************************************************************

Host: adabbott

Timers On : Mon Jul 22 16:01:27 2019
Timers Off: Mon Jul 22 16:01:28 2019

Wall Time:        0.56 seconds

                                                       Time (seconds)
Module                                       User      System        Wall        Calls
Total PK formation time             :      0.067u      0.000s      0.036w      1 calls
HF: Form core H                     :      0.000u      0.000s      0.002w      1 calls
HF: Form S/X                        :      0.000u      0.000s      0.000w      1 calls
HF: Guess                           :      0.200u      0.000s      0.125w      1 calls
SAD Guess                           :      0.183u      0.000s      0.117w      1 calls
HF: Form G                          :      0.000u      0.000s      0.000w     11 calls
JK: D                               :      0.000u      0.000s      0.000w     11 calls
JK: USO2AO                          :      0.000u      0.000s      0.000w     11 calls
JK: JK                              :      0.000u      0.000s      0.000w     11 calls
PK computes JK                      :      0.000u      0.000s      0.000w     11 calls
JK: AO2USO                          :      0.000u      0.000s      0.000w     11 calls
HF: Form F                          :      0.000u      0.000s      0.000w     11 calls
HF: Form D                          :      0.000u      0.000s      0.000w     11 calls
HF: DIIS                            :      0.000u      0.000s      0.003w     10 calls
DIISManager::add_entry              :      0.000u      0.000s      0.000w     10 calls
DIISManager::extrapolate            :      0.000u      0.000s      0.001w     10 calls
bMatrix setup                       :      0.000u      0.000s      0.000w     10 calls
bMatrix pseudoinverse               :      0.000u      0.000s      0.000w     10 calls
New vector                          :      0.000u      0.000s      0.000w     10 calls
HF: Form C                          :      0.000u      0.000s      0.000w     10 calls
Grad: V T Perturb                   :      0.000u      0.000s      0.003w      1 calls
Grad: S                             :      0.000u      0.000s      0.000w      1 calls
Grad: JK                            :      0.050u      0.000s      0.029w      1 calls
Grad: XC                            :      0.000u      0.000s      0.000w      1 calls

--------------------------------------------------------------------------------------
Total PK formation time             :      0.067u      0.000s      0.036w      1 calls
HF: Form core H                     :      0.000u      0.000s      0.002w      1 calls
HF: Form S/X                        :      0.000u      0.000s      0.000w      1 calls
HF: Guess                           :      0.200u      0.000s      0.125w      1 calls
| SAD Guess                         :      0.183u      0.000s      0.117w      1 calls
HF: Form G                          :      0.000u      0.000s      0.000w     11 calls
| JK: D                             :      0.000u      0.000s      0.000w     11 calls
| JK: USO2AO                        :      0.000u      0.000s      0.000w     11 calls
| JK: JK                            :      0.000u      0.000s      0.000w     11 calls
| | PK computes JK                  :      0.000u      0.000s      0.000w     11 calls
| JK: AO2USO                        :      0.000u      0.000s      0.000w     11 calls
HF: Form F                          :      0.000u      0.000s      0.000w     11 calls
HF: Form D                          :      0.000u      0.000s      0.000w     11 calls
HF: DIIS                            :      0.000u      0.000s      0.003w     10 calls
| DIISManager::add_entry            :      0.000u      0.000s      0.000w     10 calls
| DIISManager::extrapolate          :      0.000u      0.000s      0.001w     10 calls
| | bMatrix setup                   :      0.000u      0.000s      0.000w     10 calls
| | bMatrix pseudoinverse           :      0.000u      0.000s      0.000w     10 calls
| | New vector                      :      0.000u      0.000s      0.000w     10 calls
HF: Form C                          :      0.000u      0.000s      0.000w     10 calls
Grad: V T Perturb                   :      0.000u      0.000s      0.003w      1 calls
Grad: S                             :      0.000u      0.000s      0.000w      1 calls
Grad: JK                            :      0.050u      0.000s      0.029w      1 calls
Grad: XC                            :      0.000u      0.000s      0.000w      1 calls

**************************************************************************************

Host: adabbott

Timers On : Mon Jul 22 16:01:39 2019
Timers Off: Mon Jul 22 16:01:39 2019

Wall Time:        0.56 seconds

                                                       Time (seconds)
Module                                       User      System        Wall        Calls
Total PK formation time             :      0.050u      0.000s      0.025w      1 calls
HF: Form core H                     :      0.000u      0.000s      0.001w      1 calls
HF: Form S/X                        :      0.000u      0.000s      0.000w      1 calls
HF: Guess                           :      0.217u      0.000s      0.127w      1 calls
SAD Guess                           :      0.200u      0.000s      0.119w      1 calls
HF: Form G                          :      0.000u      0.000s      0.000w     11 calls
JK: D                               :      0.000u      0.000s      0.000w     11 calls
JK: USO2AO                          :      0.000u      0.000s      0.000w     11 calls
JK: JK                              :      0.000u      0.000s      0.000w     11 calls
PK computes JK                      :      0.000u      0.000s      0.000w     11 calls
JK: AO2USO                          :      0.000u      0.000s      0.000w     11 calls
HF: Form F                          :      0.000u      0.000s      0.000w     11 calls
HF: Form D                          :      0.000u      0.000s      0.000w     11 calls
HF: DIIS                            :      0.000u      0.000s      0.003w     10 calls
DIISManager::add_entry              :      0.000u      0.000s      0.000w     10 calls
DIISManager::extrapolate            :      0.000u      0.000s      0.001w     10 calls
bMatrix setup                       :      0.000u      0.000s      0.000w     10 calls
bMatrix pseudoinverse               :      0.000u      0.000s      0.000w     10 calls
New vector                          :      0.000u      0.000s      0.000w     10 calls
HF: Form C                          :      0.000u      0.000s      0.000w     10 calls
Grad: V T Perturb                   :      0.000u      0.000s      0.003w      1 calls
Grad: S                             :      0.000u      0.000s      0.000w      1 calls
Grad: JK                            :      0.050u      0.000s      0.030w      1 calls
Grad: XC                            :      0.000u      0.000s      0.000w      1 calls

--------------------------------------------------------------------------------------
Total PK formation time             :      0.050u      0.000s      0.025w      1 calls
HF: Form core H                     :      0.000u      0.000s      0.001w      1 calls
HF: Form S/X                        :      0.000u      0.000s      0.000w      1 calls
HF: Guess                           :      0.217u      0.000s      0.127w      1 calls
| SAD Guess                         :      0.200u      0.000s      0.119w      1 calls
HF: Form G                          :      0.000u      0.000s      0.000w     11 calls
| JK: D                             :      0.000u      0.000s      0.000w     11 calls
| JK: USO2AO                        :      0.000u      0.000s      0.000w     11 calls
| JK: JK                            :      0.000u      0.000s      0.000w     11 calls
| | PK computes JK                  :      0.000u      0.000s      0.000w     11 calls
| JK: AO2USO                        :      0.000u      0.000s      0.000w     11 calls
HF: Form F                          :      0.000u      0.000s      0.000w     11 calls
HF: Form D                          :      0.000u      0.000s      0.000w     11 calls
HF: DIIS                            :      0.000u      0.000s      0.003w     10 calls
| DIISManager::add_entry            :      0.000u      0.000s      0.000w     10 calls
| DIISManager::extrapolate          :      0.000u      0.000s      0.001w     10 calls
| | bMatrix setup                   :      0.000u      0.000s      0.000w     10 calls
| | bMatrix pseudoinverse           :      0.000u      0.000s      0.000w     10 calls
| | New vector                      :      0.000u      0.000s      0.000w     10 calls
HF: Form C                          :      0.000u      0.000s      0.000w     10 calls
Grad: V T Perturb                   :      0.000u      0.000s      0.003w      1 calls
Grad: S                             :      0.000u      0.000s      0.000w      1 calls
Grad: JK                            :      0.050u      0.000s      0.030w      1 calls
Grad: XC                            :      0.000u      0.000s      0.000w      1 calls

**************************************************************************************

Host: adabbott

Timers On : Mon Jul 22 16:22:16 2019
Timers Off: Mon Jul 22 16:22:17 2019

Wall Time:        0.55 seconds

                                                       Time (seconds)
Module                                       User      System        Wall        Calls
Total PK formation time             :      0.050u      0.000s      0.025w      1 calls
HF: Form core H                     :      0.000u      0.000s      0.001w      1 calls
HF: Form S/X                        :      0.000u      0.000s      0.000w      1 calls
HF: Guess                           :      0.200u      0.000s      0.125w      1 calls
SAD Guess                           :      0.183u      0.000s      0.117w      1 calls
HF: Form G                          :      0.000u      0.000s      0.000w     11 calls
JK: D                               :      0.000u      0.000s      0.000w     11 calls
JK: USO2AO                          :      0.000u      0.000s      0.000w     11 calls
JK: JK                              :      0.000u      0.000s      0.000w     11 calls
PK computes JK                      :      0.000u      0.000s      0.000w     11 calls
JK: AO2USO                          :      0.000u      0.000s      0.000w     11 calls
HF: Form F                          :      0.000u      0.000s      0.000w     11 calls
HF: Form D                          :      0.000u      0.000s      0.000w     11 calls
HF: DIIS                            :      0.000u      0.000s      0.003w     10 calls
DIISManager::add_entry              :      0.000u      0.000s      0.000w     10 calls
DIISManager::extrapolate            :      0.000u      0.000s      0.001w     10 calls
bMatrix setup                       :      0.000u      0.000s      0.000w     10 calls
bMatrix pseudoinverse               :      0.000u      0.000s      0.000w     10 calls
New vector                          :      0.000u      0.000s      0.000w     10 calls
HF: Form C                          :      0.000u      0.000s      0.000w     10 calls
Grad: V T Perturb                   :      0.000u      0.000s      0.003w      1 calls
Grad: S                             :      0.000u      0.000s      0.000w      1 calls
Grad: JK                            :      0.050u      0.000s      0.030w      1 calls
Grad: XC                            :      0.000u      0.000s      0.000w      1 calls

--------------------------------------------------------------------------------------
Total PK formation time             :      0.050u      0.000s      0.025w      1 calls
HF: Form core H                     :      0.000u      0.000s      0.001w      1 calls
HF: Form S/X                        :      0.000u      0.000s      0.000w      1 calls
HF: Guess                           :      0.200u      0.000s      0.125w      1 calls
| SAD Guess                         :      0.183u      0.000s      0.117w      1 calls
HF: Form G                          :      0.000u      0.000s      0.000w     11 calls
| JK: D                             :      0.000u      0.000s      0.000w     11 calls
| JK: USO2AO                        :      0.000u      0.000s      0.000w     11 calls
| JK: JK                            :      0.000u      0.000s      0.000w     11 calls
| | PK computes JK                  :      0.000u      0.000s      0.000w     11 calls
| JK: AO2USO                        :      0.000u      0.000s      0.000w     11 calls
HF: Form F                          :      0.000u      0.000s      0.000w     11 calls
HF: Form D                          :      0.000u      0.000s      0.000w     11 calls
HF: DIIS                            :      0.000u      0.000s      0.003w     10 calls
| DIISManager::add_entry            :      0.000u      0.000s      0.000w     10 calls
| DIISManager::extrapolate          :      0.000u      0.000s      0.001w     10 calls
| | bMatrix setup                   :      0.000u      0.000s      0.000w     10 calls
| | bMatrix pseudoinverse           :      0.000u      0.000s      0.000w     10 calls
| | New vector                      :      0.000u      0.000s      0.000w     10 calls
HF: Form C                          :      0.000u      0.000s      0.000w     10 calls
Grad: V T Perturb                   :      0.000u      0.000s      0.003w      1 calls
Grad: S                             :      0.000u      0.000s      0.000w      1 calls
Grad: JK                            :      0.050u      0.000s      0.030w      1 calls
Grad: XC                            :      0.000u      0.000s      0.000w      1 calls

**************************************************************************************

Host: adabbott

Timers On : Mon Jul 22 16:22:32 2019
Timers Off: Mon Jul 22 16:22:32 2019

Wall Time:        0.55 seconds

                                                       Time (seconds)
Module                                       User      System        Wall        Calls
Total PK formation time             :      0.033u      0.000s      0.025w      1 calls
HF: Form core H                     :      0.000u      0.000s      0.001w      1 calls
HF: Form S/X                        :      0.000u      0.000s      0.000w      1 calls
HF: Guess                           :      0.217u      0.000s      0.128w      1 calls
SAD Guess                           :      0.200u      0.000s      0.119w      1 calls
HF: Form G                          :      0.000u      0.000s      0.001w     11 calls
JK: D                               :      0.000u      0.000s      0.000w     11 calls
JK: USO2AO                          :      0.000u      0.000s      0.000w     11 calls
JK: JK                              :      0.000u      0.000s      0.000w     11 calls
PK computes JK                      :      0.000u      0.000s      0.000w     11 calls
JK: AO2USO                          :      0.000u      0.000s      0.000w     11 calls
HF: Form F                          :      0.000u      0.000s      0.000w     11 calls
HF: Form D                          :      0.000u      0.000s      0.000w     11 calls
HF: DIIS                            :      0.033u      0.000s      0.005w     10 calls
DIISManager::add_entry              :      0.017u      0.000s      0.000w     10 calls
DIISManager::extrapolate            :      0.000u      0.000s      0.001w     10 calls
bMatrix setup                       :      0.000u      0.000s      0.000w     10 calls
bMatrix pseudoinverse               :      0.000u      0.000s      0.000w     10 calls
New vector                          :      0.000u      0.000s      0.000w     10 calls
HF: Form C                          :      0.000u      0.000s      0.000w     10 calls
Grad: V T Perturb                   :      0.000u      0.000s      0.003w      1 calls
Grad: S                             :      0.000u      0.000s      0.000w      1 calls
Grad: JK                            :      0.050u      0.000s      0.029w      1 calls
Grad: XC                            :      0.000u      0.000s      0.000w      1 calls

--------------------------------------------------------------------------------------
Total PK formation time             :      0.033u      0.000s      0.025w      1 calls
HF: Form core H                     :      0.000u      0.000s      0.001w      1 calls
HF: Form S/X                        :      0.000u      0.000s      0.000w      1 calls
HF: Guess                           :      0.217u      0.000s      0.128w      1 calls
| SAD Guess                         :      0.200u      0.000s      0.119w      1 calls
HF: Form G                          :      0.000u      0.000s      0.001w     11 calls
| JK: D                             :      0.000u      0.000s      0.000w     11 calls
| JK: USO2AO                        :      0.000u      0.000s      0.000w     11 calls
| JK: JK                            :      0.000u      0.000s      0.000w     11 calls
| | PK computes JK                  :      0.000u      0.000s      0.000w     11 calls
| JK: AO2USO                        :      0.000u      0.000s      0.000w     11 calls
HF: Form F                          :      0.000u      0.000s      0.000w     11 calls
HF: Form D                          :      0.000u      0.000s      0.000w     11 calls
HF: DIIS                            :      0.033u      0.000s      0.005w     10 calls
| DIISManager::add_entry            :      0.017u      0.000s      0.000w     10 calls
| DIISManager::extrapolate          :      0.000u      0.000s      0.001w     10 calls
| | bMatrix setup                   :      0.000u      0.000s      0.000w     10 calls
| | bMatrix pseudoinverse           :      0.000u      0.000s      0.000w     10 calls
| | New vector                      :      0.000u      0.000s      0.000w     10 calls
HF: Form C                          :      0.000u      0.000s      0.000w     10 calls
Grad: V T Perturb                   :      0.000u      0.000s      0.003w      1 calls
Grad: S                             :      0.000u      0.000s      0.000w      1 calls
Grad: JK                            :      0.050u      0.000s      0.029w      1 calls
Grad: XC                            :      0.000u      0.000s      0.000w      1 calls

**************************************************************************************

Host: adabbott

Timers On : Mon Jul 22 16:22:58 2019
Timers Off: Mon Jul 22 16:22:59 2019

Wall Time:        0.55 seconds

                                                       Time (seconds)
Module                                       User      System        Wall        Calls
Total PK formation time             :      0.050u      0.000s      0.025w      1 calls
HF: Form core H                     :      0.000u      0.000s      0.003w      1 calls
HF: Form S/X                        :      0.000u      0.000s      0.000w      1 calls
HF: Guess                           :      0.200u      0.000s      0.125w      1 calls
SAD Guess                           :      0.183u      0.000s      0.117w      1 calls
HF: Form G                          :      0.000u      0.000s      0.000w     11 calls
JK: D                               :      0.000u      0.000s      0.000w     11 calls
JK: USO2AO                          :      0.000u      0.000s      0.000w     11 calls
JK: JK                              :      0.000u      0.000s      0.000w     11 calls
PK computes JK                      :      0.000u      0.000s      0.000w     11 calls
JK: AO2USO                          :      0.000u      0.000s      0.000w     11 calls
HF: Form F                          :      0.000u      0.000s      0.000w     11 calls
HF: Form D                          :      0.000u      0.000s      0.000w     11 calls
HF: DIIS                            :      0.017u      0.000s      0.003w     10 calls
DIISManager::add_entry              :      0.000u      0.000s      0.000w     10 calls
DIISManager::extrapolate            :      0.000u      0.000s      0.001w     10 calls
bMatrix setup                       :      0.000u      0.000s      0.000w     10 calls
bMatrix pseudoinverse               :      0.000u      0.000s      0.000w     10 calls
New vector                          :      0.000u      0.000s      0.000w     10 calls
HF: Form C                          :      0.000u      0.000s      0.000w     10 calls
Grad: V T Perturb                   :      0.000u      0.000s      0.003w      1 calls
Grad: S                             :      0.000u      0.000s      0.000w      1 calls
Grad: JK                            :      0.050u      0.000s      0.030w      1 calls
Grad: XC                            :      0.000u      0.000s      0.000w      1 calls

--------------------------------------------------------------------------------------
Total PK formation time             :      0.050u      0.000s      0.025w      1 calls
HF: Form core H                     :      0.000u      0.000s      0.003w      1 calls
HF: Form S/X                        :      0.000u      0.000s      0.000w      1 calls
HF: Guess                           :      0.200u      0.000s      0.125w      1 calls
| SAD Guess                         :      0.183u      0.000s      0.117w      1 calls
HF: Form G                          :      0.000u      0.000s      0.000w     11 calls
| JK: D                             :      0.000u      0.000s      0.000w     11 calls
| JK: USO2AO                        :      0.000u      0.000s      0.000w     11 calls
| JK: JK                            :      0.000u      0.000s      0.000w     11 calls
| | PK computes JK                  :      0.000u      0.000s      0.000w     11 calls
| JK: AO2USO                        :      0.000u      0.000s      0.000w     11 calls
HF: Form F                          :      0.000u      0.000s      0.000w     11 calls
HF: Form D                          :      0.000u      0.000s      0.000w     11 calls
HF: DIIS                            :      0.017u      0.000s      0.003w     10 calls
| DIISManager::add_entry            :      0.000u      0.000s      0.000w     10 calls
| DIISManager::extrapolate          :      0.000u      0.000s      0.001w     10 calls
| | bMatrix setup                   :      0.000u      0.000s      0.000w     10 calls
| | bMatrix pseudoinverse           :      0.000u      0.000s      0.000w     10 calls
| | New vector                      :      0.000u      0.000s      0.000w     10 calls
HF: Form C                          :      0.000u      0.000s      0.000w     10 calls
Grad: V T Perturb                   :      0.000u      0.000s      0.003w      1 calls
Grad: S                             :      0.000u      0.000s      0.000w      1 calls
Grad: JK                            :      0.050u      0.000s      0.030w      1 calls
Grad: XC                            :      0.000u      0.000s      0.000w      1 calls

**************************************************************************************

Host: adabbott

Timers On : Mon Jul 22 16:23:08 2019
Timers Off: Mon Jul 22 16:23:09 2019

Wall Time:        0.55 seconds

                                                       Time (seconds)
Module                                       User      System        Wall        Calls
Total PK formation time             :      0.033u      0.000s      0.025w      1 calls
HF: Form core H                     :      0.000u      0.000s      0.001w      1 calls
HF: Form S/X                        :      0.017u      0.000s      0.000w      1 calls
HF: Guess                           :      0.200u      0.000s      0.126w      1 calls
SAD Guess                           :      0.200u      0.000s      0.117w      1 calls
HF: Form G                          :      0.000u      0.000s      0.001w     11 calls
JK: D                               :      0.000u      0.000s      0.000w     11 calls
JK: USO2AO                          :      0.000u      0.000s      0.000w     11 calls
JK: JK                              :      0.000u      0.000s      0.000w     11 calls
PK computes JK                      :      0.000u      0.000s      0.000w     11 calls
JK: AO2USO                          :      0.000u      0.000s      0.000w     11 calls
HF: Form F                          :      0.000u      0.000s      0.000w     11 calls
HF: Form D                          :      0.000u      0.000s      0.000w     11 calls
HF: DIIS                            :      0.033u      0.000s      0.005w     10 calls
DIISManager::add_entry              :      0.017u      0.000s      0.000w     10 calls
DIISManager::extrapolate            :      0.000u      0.000s      0.001w     10 calls
bMatrix setup                       :      0.000u      0.000s      0.000w     10 calls
bMatrix pseudoinverse               :      0.000u      0.000s      0.000w     10 calls
New vector                          :      0.000u      0.000s      0.000w     10 calls
HF: Form C                          :      0.000u      0.000s      0.000w     10 calls
Grad: V T Perturb                   :      0.000u      0.000s      0.003w      1 calls
Grad: S                             :      0.000u      0.000s      0.000w      1 calls
Grad: JK                            :      0.050u      0.000s      0.029w      1 calls
Grad: XC                            :      0.000u      0.000s      0.000w      1 calls

--------------------------------------------------------------------------------------
Total PK formation time             :      0.033u      0.000s      0.025w      1 calls
HF: Form core H                     :      0.000u      0.000s      0.001w      1 calls
HF: Form S/X                        :      0.017u      0.000s      0.000w      1 calls
HF: Guess                           :      0.200u      0.000s      0.126w      1 calls
| SAD Guess                         :      0.200u      0.000s      0.117w      1 calls
HF: Form G                          :      0.000u      0.000s      0.001w     11 calls
| JK: D                             :      0.000u      0.000s      0.000w     11 calls
| JK: USO2AO                        :      0.000u      0.000s      0.000w     11 calls
| JK: JK                            :      0.000u      0.000s      0.000w     11 calls
| | PK computes JK                  :      0.000u      0.000s      0.000w     11 calls
| JK: AO2USO                        :      0.000u      0.000s      0.000w     11 calls
HF: Form F                          :      0.000u      0.000s      0.000w     11 calls
HF: Form D                          :      0.000u      0.000s      0.000w     11 calls
HF: DIIS                            :      0.033u      0.000s      0.005w     10 calls
| DIISManager::add_entry            :      0.017u      0.000s      0.000w     10 calls
| DIISManager::extrapolate          :      0.000u      0.000s      0.001w     10 calls
| | bMatrix setup                   :      0.000u      0.000s      0.000w     10 calls
| | bMatrix pseudoinverse           :      0.000u      0.000s      0.000w     10 calls
| | New vector                      :      0.000u      0.000s      0.000w     10 calls
HF: Form C                          :      0.000u      0.000s      0.000w     10 calls
Grad: V T Perturb                   :      0.000u      0.000s      0.003w      1 calls
Grad: S                             :      0.000u      0.000s      0.000w      1 calls
Grad: JK                            :      0.050u      0.000s      0.029w      1 calls
Grad: XC                            :      0.000u      0.000s      0.000w      1 calls

**************************************************************************************

Host: adabbott

Timers On : Mon Jul 22 16:26:29 2019
Timers Off: Mon Jul 22 16:26:29 2019

Wall Time:        0.55 seconds

                                                       Time (seconds)
Module                                       User      System        Wall        Calls
Total PK formation time             :      0.033u      0.000s      0.025w      1 calls
HF: Form core H                     :      0.000u      0.000s      0.001w      1 calls
HF: Form S/X                        :      0.000u      0.000s      0.000w      1 calls
HF: Guess                           :      0.217u      0.000s      0.125w      1 calls
SAD Guess                           :      0.200u      0.000s      0.117w      1 calls
HF: Form G                          :      0.000u      0.000s      0.000w     11 calls
JK: D                               :      0.000u      0.000s      0.000w     11 calls
JK: USO2AO                          :      0.000u      0.000s      0.000w     11 calls
JK: JK                              :      0.000u      0.000s      0.000w     11 calls
PK computes JK                      :      0.000u      0.000s      0.000w     11 calls
JK: AO2USO                          :      0.000u      0.000s      0.000w     11 calls
HF: Form F                          :      0.000u      0.000s      0.000w     11 calls
HF: Form D                          :      0.000u      0.000s      0.000w     11 calls
HF: DIIS                            :      0.000u      0.000s      0.003w     10 calls
DIISManager::add_entry              :      0.000u      0.000s      0.000w     10 calls
DIISManager::extrapolate            :      0.000u      0.000s      0.001w     10 calls
bMatrix setup                       :      0.000u      0.000s      0.000w     10 calls
bMatrix pseudoinverse               :      0.000u      0.000s      0.000w     10 calls
New vector                          :      0.000u      0.000s      0.000w     10 calls
HF: Form C                          :      0.000u      0.000s      0.000w     10 calls
Grad: V T Perturb                   :      0.000u      0.017s      0.003w      1 calls
Grad: S                             :      0.000u      0.000s      0.000w      1 calls
Grad: JK                            :      0.050u      0.000s      0.030w      1 calls
Grad: XC                            :      0.000u      0.000s      0.000w      1 calls

--------------------------------------------------------------------------------------
Total PK formation time             :      0.033u      0.000s      0.025w      1 calls
HF: Form core H                     :      0.000u      0.000s      0.001w      1 calls
HF: Form S/X                        :      0.000u      0.000s      0.000w      1 calls
HF: Guess                           :      0.217u      0.000s      0.125w      1 calls
| SAD Guess                         :      0.200u      0.000s      0.117w      1 calls
HF: Form G                          :      0.000u      0.000s      0.000w     11 calls
| JK: D                             :      0.000u      0.000s      0.000w     11 calls
| JK: USO2AO                        :      0.000u      0.000s      0.000w     11 calls
| JK: JK                            :      0.000u      0.000s      0.000w     11 calls
| | PK computes JK                  :      0.000u      0.000s      0.000w     11 calls
| JK: AO2USO                        :      0.000u      0.000s      0.000w     11 calls
HF: Form F                          :      0.000u      0.000s      0.000w     11 calls
HF: Form D                          :      0.000u      0.000s      0.000w     11 calls
HF: DIIS                            :      0.000u      0.000s      0.003w     10 calls
| DIISManager::add_entry            :      0.000u      0.000s      0.000w     10 calls
| DIISManager::extrapolate          :      0.000u      0.000s      0.001w     10 calls
| | bMatrix setup                   :      0.000u      0.000s      0.000w     10 calls
| | bMatrix pseudoinverse           :      0.000u      0.000s      0.000w     10 calls
| | New vector                      :      0.000u      0.000s      0.000w     10 calls
HF: Form C                          :      0.000u      0.000s      0.000w     10 calls
Grad: V T Perturb                   :      0.000u      0.017s      0.003w      1 calls
Grad: S                             :      0.000u      0.000s      0.000w      1 calls
Grad: JK                            :      0.050u      0.000s      0.030w      1 calls
Grad: XC                            :      0.000u      0.000s      0.000w      1 calls

**************************************************************************************

Host: adabbott

Timers On : Mon Jul 22 16:28:28 2019
Timers Off: Mon Jul 22 16:28:29 2019

Wall Time:        0.55 seconds

                                                       Time (seconds)
Module                                       User      System        Wall        Calls
Total PK formation time             :      0.033u      0.000s      0.025w      1 calls
HF: Form core H                     :      0.000u      0.000s      0.005w      1 calls
HF: Form S/X                        :      0.000u      0.000s      0.000w      1 calls
HF: Guess                           :      0.200u      0.000s      0.125w      1 calls
SAD Guess                           :      0.183u      0.000s      0.117w      1 calls
HF: Form G                          :      0.000u      0.000s      0.000w     11 calls
JK: D                               :      0.000u      0.000s      0.000w     11 calls
JK: USO2AO                          :      0.000u      0.000s      0.000w     11 calls
JK: JK                              :      0.000u      0.000s      0.000w     11 calls
PK computes JK                      :      0.000u      0.000s      0.000w     11 calls
JK: AO2USO                          :      0.000u      0.000s      0.000w     11 calls
HF: Form F                          :      0.000u      0.000s      0.000w     11 calls
HF: Form D                          :      0.000u      0.000s      0.000w     11 calls
HF: DIIS                            :      0.000u      0.000s      0.003w     10 calls
DIISManager::add_entry              :      0.000u      0.000s      0.000w     10 calls
DIISManager::extrapolate            :      0.000u      0.000s      0.001w     10 calls
bMatrix setup                       :      0.000u      0.000s      0.000w     10 calls
bMatrix pseudoinverse               :      0.000u      0.000s      0.000w     10 calls
New vector                          :      0.000u      0.000s      0.000w     10 calls
HF: Form C                          :      0.000u      0.000s      0.000w     10 calls
Grad: V T Perturb                   :      0.000u      0.000s      0.003w      1 calls
Grad: S                             :      0.000u      0.000s      0.000w      1 calls
Grad: JK                            :      0.050u      0.000s      0.029w      1 calls
Grad: XC                            :      0.000u      0.000s      0.000w      1 calls

--------------------------------------------------------------------------------------
Total PK formation time             :      0.033u      0.000s      0.025w      1 calls
HF: Form core H                     :      0.000u      0.000s      0.005w      1 calls
HF: Form S/X                        :      0.000u      0.000s      0.000w      1 calls
HF: Guess                           :      0.200u      0.000s      0.125w      1 calls
| SAD Guess                         :      0.183u      0.000s      0.117w      1 calls
HF: Form G                          :      0.000u      0.000s      0.000w     11 calls
| JK: D                             :      0.000u      0.000s      0.000w     11 calls
| JK: USO2AO                        :      0.000u      0.000s      0.000w     11 calls
| JK: JK                            :      0.000u      0.000s      0.000w     11 calls
| | PK computes JK                  :      0.000u      0.000s      0.000w     11 calls
| JK: AO2USO                        :      0.000u      0.000s      0.000w     11 calls
HF: Form F                          :      0.000u      0.000s      0.000w     11 calls
HF: Form D                          :      0.000u      0.000s      0.000w     11 calls
HF: DIIS                            :      0.000u      0.000s      0.003w     10 calls
| DIISManager::add_entry            :      0.000u      0.000s      0.000w     10 calls
| DIISManager::extrapolate          :      0.000u      0.000s      0.001w     10 calls
| | bMatrix setup                   :      0.000u      0.000s      0.000w     10 calls
| | bMatrix pseudoinverse           :      0.000u      0.000s      0.000w     10 calls
| | New vector                      :      0.000u      0.000s      0.000w     10 calls
HF: Form C                          :      0.000u      0.000s      0.000w     10 calls
Grad: V T Perturb                   :      0.000u      0.000s      0.003w      1 calls
Grad: S                             :      0.000u      0.000s      0.000w      1 calls
Grad: JK                            :      0.050u      0.000s      0.029w      1 calls
Grad: XC                            :      0.000u      0.000s      0.000w      1 calls

**************************************************************************************

Host: adabbott

Timers On : Mon Jul 22 16:42:10 2019
Timers Off: Mon Jul 22 16:42:12 2019

Wall Time:        1.45 seconds

                                                       Time (seconds)
Module                                       User      System        Wall        Calls
Total PK formation time             :      0.200u      0.000s      0.111w      4 calls
HF: Form core H                     :      0.000u      0.000s      0.002w      3 calls
HF: Form S/X                        :      0.000u      0.000s      0.000w      3 calls
HF: Guess                           :      0.633u      0.000s      0.383w      3 calls
SAD Guess                           :      0.600u      0.000s      0.358w      3 calls
HF: Form G                          :      0.000u      0.000s      0.001w     33 calls
JK: D                               :      0.000u      0.000s      0.000w     44 calls
JK: USO2AO                          :      0.000u      0.000s      0.001w     44 calls
JK: JK                              :      0.017u      0.000s      0.004w     44 calls
PK computes JK                      :      0.017u      0.000s      0.004w     44 calls
JK: AO2USO                          :      0.000u      0.000s      0.000w     44 calls
HF: Form F                          :      0.000u      0.000s      0.000w     33 calls
HF: Form D                          :      0.000u      0.000s      0.000w     33 calls
HF: DIIS                            :      0.000u      0.000s      0.010w     30 calls
DIISManager::add_entry              :      0.000u      0.000s      0.001w     30 calls
DIISManager::extrapolate            :      0.000u      0.000s      0.002w     30 calls
bMatrix setup                       :      0.000u      0.000s      0.001w     30 calls
bMatrix pseudoinverse               :      0.000u      0.000s      0.001w     30 calls
New vector                          :      0.000u      0.000s      0.000w     30 calls
HF: Form C                          :      0.000u      0.000s      0.001w     30 calls
Grad: V T Perturb                   :      0.000u      0.000s      0.006w      2 calls
Grad: S                             :      0.000u      0.000s      0.000w      2 calls
Grad: JK                            :      0.100u      0.000s      0.059w      2 calls
Grad: XC                            :      0.000u      0.000s      0.000w      2 calls
Hess: V                             :      0.083u      0.017s      0.057w      1 calls
Hess: T                             :      0.000u      0.000s      0.000w      1 calls
Hess: S                             :      0.000u      0.000s      0.000w      1 calls
Hess: JK                            :      0.100u      0.000s      0.070w      1 calls
Hess: XC                            :      0.000u      0.000s      0.000w      1 calls

--------------------------------------------------------------------------------------
Total PK formation time             :      0.200u      0.000s      0.111w      4 calls
HF: Form core H                     :      0.000u      0.000s      0.002w      3 calls
HF: Form S/X                        :      0.000u      0.000s      0.000w      3 calls
HF: Guess                           :      0.633u      0.000s      0.383w      3 calls
| SAD Guess                         :      0.600u      0.000s      0.358w      3 calls
HF: Form G                          :      0.000u      0.000s      0.001w     33 calls
| JK: D                             :      0.000u      0.000s      0.000w     33 calls
| JK: USO2AO                        :      0.000u      0.000s      0.000w     33 calls
| JK: JK                            :      0.000u      0.000s      0.000w     33 calls
| | PK computes JK                  :      0.000u      0.000s      0.000w     33 calls
| JK: AO2USO                        :      0.000u      0.000s      0.000w     33 calls
HF: Form F                          :      0.000u      0.000s      0.000w     33 calls
HF: Form D                          :      0.000u      0.000s      0.000w     33 calls
HF: DIIS                            :      0.000u      0.000s      0.010w     30 calls
| DIISManager::add_entry            :      0.000u      0.000s      0.001w     30 calls
| DIISManager::extrapolate          :      0.000u      0.000s      0.002w     30 calls
| | bMatrix setup                   :      0.000u      0.000s      0.001w     30 calls
| | bMatrix pseudoinverse           :      0.000u      0.000s      0.001w     30 calls
| | New vector                      :      0.000u      0.000s      0.000w     30 calls
HF: Form C                          :      0.000u      0.000s      0.001w     30 calls
Grad: V T Perturb                   :      0.000u      0.000s      0.006w      2 calls
Grad: S                             :      0.000u      0.000s      0.000w      2 calls
Grad: JK                            :      0.100u      0.000s      0.059w      2 calls
Grad: XC                            :      0.000u      0.000s      0.000w      2 calls
Hess: V                             :      0.083u      0.017s      0.057w      1 calls
Hess: T                             :      0.000u      0.000s      0.000w      1 calls
Hess: S                             :      0.000u      0.000s      0.000w      1 calls
Hess: JK                            :      0.100u      0.000s      0.070w      1 calls
Hess: XC                            :      0.000u      0.000s      0.000w      1 calls
JK: D                               :      0.000u      0.000s      0.000w     11 calls
JK: USO2AO                          :      0.000u      0.000s      0.000w     11 calls
JK: JK                              :      0.017u      0.000s      0.004w     11 calls
| PK computes JK                    :      0.017u      0.000s      0.003w     11 calls
JK: AO2USO                          :      0.000u      0.000s      0.000w     11 calls

**************************************************************************************

Host: adabbott

Timers On : Tue Jul 23 11:40:20 2019
Timers Off: Tue Jul 23 11:40:22 2019

Wall Time:        1.43 seconds

                                                       Time (seconds)
Module                                       User      System        Wall        Calls
Total PK formation time             :      0.183u      0.000s      0.098w      4 calls
HF: Form core H                     :      0.000u      0.017s      0.002w      3 calls
HF: Form S/X                        :      0.000u      0.000s      0.000w      3 calls
HF: Guess                           :      0.617u      0.017s      0.380w      3 calls
SAD Guess                           :      0.583u      0.000s      0.354w      3 calls
HF: Form G                          :      0.017u      0.000s      0.001w     33 calls
JK: D                               :      0.000u      0.000s      0.000w     44 calls
JK: USO2AO                          :      0.000u      0.000s      0.001w     44 calls
JK: JK                              :      0.000u      0.000s      0.004w     44 calls
PK computes JK                      :      0.000u      0.000s      0.004w     44 calls
JK: AO2USO                          :      0.017u      0.000s      0.000w     44 calls
HF: Form F                          :      0.000u      0.000s      0.000w     33 calls
HF: Form D                          :      0.000u      0.000s      0.000w     33 calls
HF: DIIS                            :      0.000u      0.000s      0.010w     30 calls
DIISManager::add_entry              :      0.000u      0.000s      0.001w     30 calls
DIISManager::extrapolate            :      0.000u      0.000s      0.002w     30 calls
bMatrix setup                       :      0.000u      0.000s      0.001w     30 calls
bMatrix pseudoinverse               :      0.000u      0.000s      0.001w     30 calls
New vector                          :      0.000u      0.000s      0.000w     30 calls
HF: Form C                          :      0.000u      0.000s      0.001w     30 calls
Grad: V T Perturb                   :      0.000u      0.000s      0.005w      2 calls
Grad: S                             :      0.000u      0.000s      0.000w      2 calls
Grad: JK                            :      0.100u      0.000s      0.059w      2 calls
Grad: XC                            :      0.000u      0.000s      0.000w      2 calls
Hess: V                             :      0.017u      0.083s      0.057w      1 calls
Hess: T                             :      0.000u      0.000s      0.000w      1 calls
Hess: S                             :      0.000u      0.000s      0.000w      1 calls
Hess: JK                            :      0.117u      0.000s      0.069w      1 calls
Hess: XC                            :      0.000u      0.000s      0.000w      1 calls

--------------------------------------------------------------------------------------
Total PK formation time             :      0.183u      0.000s      0.098w      4 calls
HF: Form core H                     :      0.000u      0.017s      0.002w      3 calls
HF: Form S/X                        :      0.000u      0.000s      0.000w      3 calls
HF: Guess                           :      0.617u      0.017s      0.380w      3 calls
| SAD Guess                         :      0.583u      0.000s      0.354w      3 calls
HF: Form G                          :      0.017u      0.000s      0.001w     33 calls
| JK: D                             :      0.000u      0.000s      0.000w     33 calls
| JK: USO2AO                        :      0.000u      0.000s      0.000w     33 calls
| JK: JK                            :      0.000u      0.000s      0.000w     33 calls
| | PK computes JK                  :      0.000u      0.000s      0.000w     33 calls
| JK: AO2USO                        :      0.017u      0.000s      0.000w     33 calls
HF: Form F                          :      0.000u      0.000s      0.000w     33 calls
HF: Form D                          :      0.000u      0.000s      0.000w     33 calls
HF: DIIS                            :      0.000u      0.000s      0.010w     30 calls
| DIISManager::add_entry            :      0.000u      0.000s      0.001w     30 calls
| DIISManager::extrapolate          :      0.000u      0.000s      0.002w     30 calls
| | bMatrix setup                   :      0.000u      0.000s      0.001w     30 calls
| | bMatrix pseudoinverse           :      0.000u      0.000s      0.001w     30 calls
| | New vector                      :      0.000u      0.000s      0.000w     30 calls
HF: Form C                          :      0.000u      0.000s      0.001w     30 calls
Grad: V T Perturb                   :      0.000u      0.000s      0.005w      2 calls
Grad: S                             :      0.000u      0.000s      0.000w      2 calls
Grad: JK                            :      0.100u      0.000s      0.059w      2 calls
Grad: XC                            :      0.000u      0.000s      0.000w      2 calls
Hess: V                             :      0.017u      0.083s      0.057w      1 calls
Hess: T                             :      0.000u      0.000s      0.000w      1 calls
Hess: S                             :      0.000u      0.000s      0.000w      1 calls
Hess: JK                            :      0.117u      0.000s      0.069w      1 calls
Hess: XC                            :      0.000u      0.000s      0.000w      1 calls
JK: D                               :      0.000u      0.000s      0.000w     11 calls
JK: USO2AO                          :      0.000u      0.000s      0.000w     11 calls
JK: JK                              :      0.000u      0.000s      0.003w     11 calls
| PK computes JK                    :      0.000u      0.000s      0.003w     11 calls
JK: AO2USO                          :      0.000u      0.000s      0.000w     11 calls

**************************************************************************************

Host: adabbott

Timers On : Tue Jul 23 11:40:33 2019
Timers Off: Tue Jul 23 11:40:34 2019

Wall Time:        1.45 seconds

                                                       Time (seconds)
Module                                       User      System        Wall        Calls
Total PK formation time             :      0.150u      0.000s      0.098w      4 calls
HF: Form core H                     :      0.000u      0.000s      0.002w      3 calls
HF: Form S/X                        :      0.000u      0.000s      0.000w      3 calls
HF: Guess                           :      0.650u      0.000s      0.385w      3 calls
SAD Guess                           :      0.600u      0.000s      0.360w      3 calls
HF: Form G                          :      0.000u      0.000s      0.001w     33 calls
JK: D                               :      0.000u      0.000s      0.000w     44 calls
JK: USO2AO                          :      0.000u      0.000s      0.001w     44 calls
JK: JK                              :      0.000u      0.000s      0.004w     44 calls
PK computes JK                      :      0.000u      0.000s      0.004w     44 calls
JK: AO2USO                          :      0.000u      0.000s      0.000w     44 calls
HF: Form F                          :      0.000u      0.000s      0.000w     33 calls
HF: Form D                          :      0.000u      0.000s      0.000w     33 calls
HF: DIIS                            :      0.033u      0.000s      0.010w     30 calls
DIISManager::add_entry              :      0.000u      0.000s      0.001w     30 calls
DIISManager::extrapolate            :      0.000u      0.000s      0.002w     30 calls
bMatrix setup                       :      0.000u      0.000s      0.001w     30 calls
bMatrix pseudoinverse               :      0.000u      0.000s      0.001w     30 calls
New vector                          :      0.000u      0.000s      0.000w     30 calls
HF: Form C                          :      0.000u      0.000s      0.001w     30 calls
Grad: V T Perturb                   :      0.017u      0.000s      0.006w      2 calls
Grad: S                             :      0.000u      0.000s      0.000w      2 calls
Grad: JK                            :      0.100u      0.000s      0.059w      2 calls
Grad: XC                            :      0.000u      0.000s      0.000w      2 calls
Hess: V                             :      0.050u      0.033s      0.058w      1 calls
Hess: T                             :      0.000u      0.000s      0.000w      1 calls
Hess: S                             :      0.000u      0.000s      0.000w      1 calls
Hess: JK                            :      0.100u      0.017s      0.069w      1 calls
Hess: XC                            :      0.000u      0.000s      0.000w      1 calls

--------------------------------------------------------------------------------------
Total PK formation time             :      0.150u      0.000s      0.098w      4 calls
HF: Form core H                     :      0.000u      0.000s      0.002w      3 calls
HF: Form S/X                        :      0.000u      0.000s      0.000w      3 calls
HF: Guess                           :      0.650u      0.000s      0.385w      3 calls
| SAD Guess                         :      0.600u      0.000s      0.360w      3 calls
HF: Form G                          :      0.000u      0.000s      0.001w     33 calls
| JK: D                             :      0.000u      0.000s      0.000w     33 calls
| JK: USO2AO                        :      0.000u      0.000s      0.000w     33 calls
| JK: JK                            :      0.000u      0.000s      0.000w     33 calls
| | PK computes JK                  :      0.000u      0.000s      0.000w     33 calls
| JK: AO2USO                        :      0.000u      0.000s      0.000w     33 calls
HF: Form F                          :      0.000u      0.000s      0.000w     33 calls
HF: Form D                          :      0.000u      0.000s      0.000w     33 calls
HF: DIIS                            :      0.033u      0.000s      0.010w     30 calls
| DIISManager::add_entry            :      0.000u      0.000s      0.001w     30 calls
| DIISManager::extrapolate          :      0.000u      0.000s      0.002w     30 calls
| | bMatrix setup                   :      0.000u      0.000s      0.001w     30 calls
| | bMatrix pseudoinverse           :      0.000u      0.000s      0.001w     30 calls
| | New vector                      :      0.000u      0.000s      0.000w     30 calls
HF: Form C                          :      0.000u      0.000s      0.001w     30 calls
Grad: V T Perturb                   :      0.017u      0.000s      0.006w      2 calls
Grad: S                             :      0.000u      0.000s      0.000w      2 calls
Grad: JK                            :      0.100u      0.000s      0.059w      2 calls
Grad: XC                            :      0.000u      0.000s      0.000w      2 calls
Hess: V                             :      0.050u      0.033s      0.058w      1 calls
Hess: T                             :      0.000u      0.000s      0.000w      1 calls
Hess: S                             :      0.000u      0.000s      0.000w      1 calls
Hess: JK                            :      0.100u      0.017s      0.069w      1 calls
Hess: XC                            :      0.000u      0.000s      0.000w      1 calls
JK: D                               :      0.000u      0.000s      0.000w     11 calls
JK: USO2AO                          :      0.000u      0.000s      0.000w     11 calls
JK: JK                              :      0.000u      0.000s      0.004w     11 calls
| PK computes JK                    :      0.000u      0.000s      0.003w     11 calls
JK: AO2USO                          :      0.000u      0.000s      0.000w     11 calls

**************************************************************************************

Host: adabbott

Timers On : Tue Jul 23 11:41:13 2019
Timers Off: Tue Jul 23 11:41:14 2019

Wall Time:        1.46 seconds

                                                       Time (seconds)
Module                                       User      System        Wall        Calls
Total PK formation time             :      0.167u      0.000s      0.098w      4 calls
HF: Form core H                     :      0.000u      0.000s      0.004w      3 calls
HF: Form S/X                        :      0.000u      0.000s      0.000w      3 calls
HF: Guess                           :      0.633u      0.000s      0.385w      3 calls
SAD Guess                           :      0.600u      0.000s      0.360w      3 calls
HF: Form G                          :      0.000u      0.000s      0.001w     33 calls
JK: D                               :      0.000u      0.000s      0.000w     44 calls
JK: USO2AO                          :      0.000u      0.000s      0.001w     44 calls
JK: JK                              :      0.017u      0.000s      0.004w     44 calls
PK computes JK                      :      0.017u      0.000s      0.004w     44 calls
JK: AO2USO                          :      0.000u      0.000s      0.000w     44 calls
HF: Form F                          :      0.000u      0.000s      0.000w     33 calls
HF: Form D                          :      0.000u      0.000s      0.000w     33 calls
HF: DIIS                            :      0.033u      0.000s      0.010w     30 calls
DIISManager::add_entry              :      0.000u      0.000s      0.001w     30 calls
DIISManager::extrapolate            :      0.000u      0.000s      0.002w     30 calls
bMatrix setup                       :      0.000u      0.000s      0.001w     30 calls
bMatrix pseudoinverse               :      0.000u      0.000s      0.001w     30 calls
New vector                          :      0.000u      0.000s      0.000w     30 calls
[...]
| JK: AO2USO                        :      0.000u      0.000s      0.000w     22 calls
HF: Form F                          :      0.000u      0.000s      0.000w     22 calls
HF: Form D                          :      0.000u      0.000s      0.000w     22 calls
HF: DIIS                            :      0.017u      0.000s      0.007w     20 calls
| DIISManager::add_entry            :      0.000u      0.000s      0.001w     20 calls
| DIISManager::extrapolate          :      0.000u      0.000s      0.001w     20 calls
| | bMatrix setup                   :      0.000u      0.000s      0.000w     20 calls
| | bMatrix pseudoinverse           :      0.000u      0.000s      0.000w     20 calls
| | New vector                      :      0.000u      0.000s      0.000w     20 calls
HF: Form C                          :      0.000u      0.000s      0.000w     20 calls
Grad: V T Perturb                   :      0.000u      0.000s      0.003w      1 calls
Grad: S                             :      0.000u      0.000s      0.000w      1 calls
Grad: JK                            :      0.050u      0.000s      0.030w      1 calls
Grad: XC                            :      0.000u      0.000s      0.000w      1 calls
Hess: V                             :      0.050u      0.050s      0.057w      1 calls
Hess: T                             :      0.000u      0.000s      0.000w      1 calls
Hess: S                             :      0.000u      0.000s      0.000w      1 calls
Hess: JK                            :      0.100u      0.000s      0.069w      1 calls
Hess: XC                            :      0.000u      0.000s      0.000w      1 calls
JK: D                               :      0.000u      0.000s      0.000w     11 calls
JK: USO2AO                          :      0.017u      0.000s      0.000w     11 calls
JK: JK                              :      0.000u      0.000s      0.004w     11 calls
| PK computes JK                    :      0.000u      0.000s      0.004w     11 calls
JK: AO2USO                          :      0.000u      0.000s      0.000w     11 calls

**************************************************************************************

Host: adabbott

Timers On : Wed Jul 24 15:23:58 2019
Timers Off: Wed Jul 24 15:23:59 2019

Wall Time:        1.13 seconds

                                                       Time (seconds)
Module                                       User      System        Wall        Calls
Total PK formation time             :      0.150u      0.000s      0.075w      3 calls
HF: Form core H                     :      0.000u      0.000s      0.003w      2 calls
HF: Form S/X                        :      0.000u      0.000s      0.000w      2 calls
HF: Guess                           :      0.417u      0.000s      0.256w      2 calls
SAD Guess                           :      0.383u      0.000s      0.239w      2 calls
HF: Form G                          :      0.000u      0.000s      0.001w     22 calls
JK: D                               :      0.000u      0.000s      0.000w     33 calls
JK: USO2AO                          :      0.000u      0.000s      0.001w     33 calls
JK: JK                              :      0.000u      0.000s      0.004w     33 calls
PK computes JK                      :      0.000u      0.000s      0.004w     33 calls
JK: AO2USO                          :      0.000u      0.000s      0.000w     33 calls
HF: Form F                          :      0.000u      0.000s      0.000w     22 calls
HF: Form D                          :      0.000u      0.000s      0.000w     22 calls
HF: DIIS                            :      0.000u      0.000s      0.007w     20 calls
DIISManager::add_entry              :      0.000u      0.000s      0.001w     20 calls
DIISManager::extrapolate            :      0.000u      0.000s      0.001w     20 calls
bMatrix setup                       :      0.000u      0.000s      0.000w     20 calls
bMatrix pseudoinverse               :      0.000u      0.000s      0.000w     20 calls
New vector                          :      0.000u      0.000s      0.000w     20 calls
HF: Form C                          :      0.000u      0.000s      0.001w     20 calls
Grad: V T Perturb                   :      0.000u      0.000s      0.003w      1 calls
Grad: S                             :      0.000u      0.000s      0.000w      1 calls
Grad: JK                            :      0.050u      0.017s      0.030w      1 calls
Grad: XC                            :      0.000u      0.000s      0.000w      1 calls
Hess: V                             :      0.083u      0.017s      0.059w      1 calls
Hess: T                             :      0.000u      0.000s      0.000w      1 calls
Hess: S                             :      0.000u      0.000s      0.000w      1 calls
Hess: JK                            :      0.117u      0.000s      0.070w      1 calls
Hess: XC                            :      0.000u      0.000s      0.000w      1 calls

--------------------------------------------------------------------------------------
Total PK formation time             :      0.150u      0.000s      0.075w      3 calls
HF: Form core H                     :      0.000u      0.000s      0.003w      2 calls
HF: Form S/X                        :      0.000u      0.000s      0.000w      2 calls
HF: Guess                           :      0.417u      0.000s      0.256w      2 calls
| SAD Guess                         :      0.383u      0.000s      0.239w      2 calls
HF: Form G                          :      0.000u      0.000s      0.001w     22 calls
| JK: D                             :      0.000u      0.000s      0.000w     22 calls
| JK: USO2AO                        :      0.000u      0.000s      0.000w     22 calls
| JK: JK                            :      0.000u      0.000s      0.000w     22 calls
| | PK computes JK                  :      0.000u      0.000s      0.000w     22 calls
| JK: AO2USO                        :      0.000u      0.000s      0.000w     22 calls
HF: Form F                          :      0.000u      0.000s      0.000w     22 calls
HF: Form D                          :      0.000u      0.000s      0.000w     22 calls
HF: DIIS                            :      0.000u      0.000s      0.007w     20 calls
| DIISManager::add_entry            :      0.000u      0.000s      0.001w     20 calls
| DIISManager::extrapolate          :      0.000u      0.000s      0.001w     20 calls
| | bMatrix setup                   :      0.000u      0.000s      0.000w     20 calls
| | bMatrix pseudoinverse           :      0.000u      0.000s      0.000w     20 calls
| | New vector                      :      0.000u      0.000s      0.000w     20 calls
HF: Form C                          :      0.000u      0.000s      0.001w     20 calls
Grad: V T Perturb                   :      0.000u      0.000s      0.003w      1 calls
Grad: S                             :      0.000u      0.000s      0.000w      1 calls
Grad: JK                            :      0.050u      0.017s      0.030w      1 calls
Grad: XC                            :      0.000u      0.000s      0.000w      1 calls
Hess: V                             :      0.083u      0.017s      0.059w      1 calls
Hess: T                             :      0.000u      0.000s      0.000w      1 calls
Hess: S                             :      0.000u      0.000s      0.000w      1 calls
Hess: JK                            :      0.117u      0.000s      0.070w      1 calls
Hess: XC                            :      0.000u      0.000s      0.000w      1 calls
JK: D                               :      0.000u      0.000s      0.000w     11 calls
JK: USO2AO                          :      0.000u      0.000s      0.001w     11 calls
JK: JK                              :      0.000u      0.000s      0.004w     11 calls
| PK computes JK                    :      0.000u      0.000s      0.004w     11 calls
JK: AO2USO                          :      0.000u      0.000s      0.000w     11 calls

**************************************************************************************

Host: adabbott

Timers On : Wed Jul 24 16:39:44 2019
Timers Off: Wed Jul 24 16:39:45 2019

Wall Time:        1.13 seconds

                                                       Time (seconds)
Module                                       User      System        Wall        Calls
Total PK formation time             :      0.117u      0.000s      0.076w      3 calls
HF: Form core H                     :      0.000u      0.000s      0.006w      2 calls
HF: Form S/X                        :      0.000u      0.000s      0.000w      2 calls
HF: Guess                           :      0.433u      0.000s      0.255w      2 calls
SAD Guess                           :      0.400u      0.000s      0.238w      2 calls
HF: Form G                          :      0.000u      0.000s      0.001w     22 calls
JK: D                               :      0.000u      0.000s      0.000w     33 calls
JK: USO2AO                          :      0.000u      0.000s      0.001w     33 calls
JK: JK                              :      0.017u      0.000s      0.004w     33 calls
PK computes JK                      :      0.017u      0.000s      0.004w     33 calls
JK: AO2USO                          :      0.000u      0.000s      0.000w     33 calls
HF: Form F                          :      0.000u      0.000s      0.000w     22 calls
HF: Form D                          :      0.000u      0.000s      0.000w     22 calls
HF: DIIS                            :      0.017u      0.000s      0.007w     20 calls
DIISManager::add_entry              :      0.000u      0.000s      0.001w     20 calls
DIISManager::extrapolate            :      0.000u      0.000s      0.001w     20 calls
bMatrix setup                       :      0.000u      0.000s      0.000w     20 calls
bMatrix pseudoinverse               :      0.000u      0.000s      0.000w     20 calls
New vector                          :      0.000u      0.000s      0.000w     20 calls
HF: Form C                          :      0.000u      0.000s      0.001w     20 calls
Grad: V T Perturb                   :      0.000u      0.000s      0.003w      1 calls
Grad: S                             :      0.000u      0.000s      0.000w      1 calls
Grad: JK                            :      0.050u      0.000s      0.030w      1 calls
Grad: XC                            :      0.000u      0.000s      0.000w      1 calls
Hess: V                             :      0.067u      0.033s      0.057w      1 calls
Hess: T                             :      0.000u      0.000s      0.000w      1 calls
Hess: S                             :      0.000u      0.000s      0.000w      1 calls
Hess: JK                            :      0.100u      0.000s      0.069w      1 calls
Hess: XC                            :      0.000u      0.000s      0.000w      1 calls

--------------------------------------------------------------------------------------
Total PK formation time             :      0.117u      0.000s      0.076w      3 calls
HF: Form core H                     :      0.000u      0.000s      0.006w      2 calls
HF: Form S/X                        :      0.000u      0.000s      0.000w      2 calls
HF: Guess                           :      0.433u      0.000s      0.255w      2 calls
| SAD Guess                         :      0.400u      0.000s      0.238w      2 calls
HF: Form G                          :      0.000u      0.000s      0.001w     22 calls
| JK: D                             :      0.000u      0.000s      0.000w     22 calls
| JK: USO2AO                        :      0.000u      0.000s      0.000w     22 calls
| JK: JK                            :      0.000u      0.000s      0.000w     22 calls
| | PK computes JK                  :      0.000u      0.000s      0.000w     22 calls
| JK: AO2USO                        :      0.000u      0.000s      0.000w     22 calls
HF: Form F                          :      0.000u      0.000s      0.000w     22 calls
HF: Form D                          :      0.000u      0.000s      0.000w     22 calls
HF: DIIS                            :      0.017u      0.000s      0.007w     20 calls
| DIISManager::add_entry            :      0.000u      0.000s      0.001w     20 calls
| DIISManager::extrapolate          :      0.000u      0.000s      0.001w     20 calls
| | bMatrix setup                   :      0.000u      0.000s      0.000w     20 calls
| | bMatrix pseudoinverse           :      0.000u      0.000s      0.000w     20 calls
| | New vector                      :      0.000u      0.000s      0.000w     20 calls
HF: Form C                          :      0.000u      0.000s      0.001w     20 calls
Grad: V T Perturb                   :      0.000u      0.000s      0.003w      1 calls
Grad: S                             :      0.000u      0.000s      0.000w      1 calls
Grad: JK                            :      0.050u      0.000s      0.030w      1 calls
Grad: XC                            :      0.000u      0.000s      0.000w      1 calls
Hess: V                             :      0.067u      0.033s      0.057w      1 calls
Hess: T                             :      0.000u      0.000s      0.000w      1 calls
Hess: S                             :      0.000u      0.000s      0.000w      1 calls
Hess: JK                            :      0.100u      0.000s      0.069w      1 calls
Hess: XC                            :      0.000u      0.000s      0.000w      1 calls
JK: D                               :      0.000u      0.000s      0.000w     11 calls
JK: USO2AO                          :      0.000u      0.000s      0.001w     11 calls
JK: JK                              :      0.017u      0.000s      0.004w     11 calls
| PK computes JK                    :      0.017u      0.000s      0.004w     11 calls
JK: AO2USO                          :      0.000u      0.000s      0.000w     11 calls

**************************************************************************************

Host: adabbott

Timers On : Wed Jul 24 16:40:32 2019
Timers Off: Wed Jul 24 16:40:33 2019

Wall Time:        1.13 seconds

                                                       Time (seconds)
Module                                       User      System        Wall        Calls
Total PK formation time             :      0.133u      0.000s      0.076w      3 calls
HF: Form core H                     :      0.000u      0.000s      0.003w      2 calls
HF: Form S/X                        :      0.000u      0.000s      0.000w      2 calls
HF: Guess                           :      0.433u      0.017s      0.259w      2 calls
SAD Guess                           :      0.400u      0.017s      0.241w      2 calls
HF: Form G                          :      0.000u      0.000s      0.001w     22 calls
JK: D                               :      0.000u      0.000s      0.000w     33 calls
JK: USO2AO                          :      0.000u      0.000s      0.001w     33 calls
JK: JK                              :      0.000u      0.000s      0.004w     33 calls
PK computes JK                      :      0.000u      0.000s      0.004w     33 calls
JK: AO2USO                          :      0.000u      0.000s      0.000w     33 calls
HF: Form F                          :      0.000u      0.000s      0.000w     22 calls
HF: Form D                          :      0.000u      0.000s      0.000w     22 calls
HF: DIIS                            :      0.000u      0.000s      0.007w     20 calls
DIISManager::add_entry              :      0.000u      0.000s      0.001w     20 calls
DIISManager::extrapolate            :      0.000u      0.000s      0.001w     20 calls
bMatrix setup                       :      0.000u      0.000s      0.000w     20 calls
bMatrix pseudoinverse               :      0.000u      0.000s      0.000w     20 calls
New vector                          :      0.000u      0.000s      0.000w     20 calls
HF: Form C                          :      0.000u      0.000s      0.001w     20 calls
Grad: V T Perturb                   :      0.000u      0.000s      0.003w      1 calls
Grad: S                             :      0.000u      0.000s      0.000w      1 calls
Grad: JK                            :      0.067u      0.000s      0.031w      1 calls
Grad: XC                            :      0.000u      0.000s      0.000w      1 calls
Hess: V                             :      0.067u      0.033s      0.058w      1 calls
Hess: T                             :      0.000u      0.000s      0.000w      1 calls
Hess: S                             :      0.000u      0.000s      0.000w      1 calls
Hess: JK                            :      0.117u      0.000s      0.069w      1 calls
Hess: XC                            :      0.000u      0.000s      0.000w      1 calls

--------------------------------------------------------------------------------------
Total PK formation time             :      0.133u      0.000s      0.076w      3 calls
HF: Form core H                     :      0.000u      0.000s      0.003w      2 calls
HF: Form S/X                        :      0.000u      0.000s      0.000w      2 calls
HF: Guess                           :      0.433u      0.017s      0.259w      2 calls
| SAD Guess                         :      0.400u      0.017s      0.241w      2 calls
HF: Form G                          :      0.000u      0.000s      0.001w     22 calls
| JK: D                             :      0.000u      0.000s      0.000w     22 calls
| JK: USO2AO                        :      0.000u      0.000s      0.000w     22 calls
| JK: JK                            :      0.000u      0.000s      0.000w     22 calls
| | PK computes JK                  :      0.000u      0.000s      0.000w     22 calls
| JK: AO2USO                        :      0.000u      0.000s      0.000w     22 calls
HF: Form F                          :      0.000u      0.000s      0.000w     22 calls
HF: Form D                          :      0.000u      0.000s      0.000w     22 calls
HF: DIIS                            :      0.000u      0.000s      0.007w     20 calls
| DIISManager::add_entry            :      0.000u      0.000s      0.001w     20 calls
| DIISManager::extrapolate          :      0.000u      0.000s      0.001w     20 calls
| | bMatrix setup                   :      0.000u      0.000s      0.000w     20 calls
| | bMatrix pseudoinverse           :      0.000u      0.000s      0.000w     20 calls
| | New vector                      :      0.000u      0.000s      0.000w     20 calls
HF: Form C                          :      0.000u      0.000s      0.001w     20 calls
Grad: V T Perturb                   :      0.000u      0.000s      0.003w      1 calls
Grad: S                             :      0.000u      0.000s      0.000w      1 calls
Grad: JK                            :      0.067u      0.000s      0.031w      1 calls
Grad: XC                            :      0.000u      0.000s      0.000w      1 calls
Hess: V                             :      0.067u      0.033s      0.058w      1 calls
Hess: T                             :      0.000u      0.000s      0.000w      1 calls
Hess: S                             :      0.000u      0.000s      0.000w      1 calls
Hess: JK                            :      0.117u      0.000s      0.069w      1 calls
Hess: XC                            :      0.000u      0.000s      0.000w      1 calls
JK: D                               :      0.000u      0.000s      0.000w     11 calls
JK: USO2AO                          :      0.000u      0.000s      0.001w     11 calls
JK: JK                              :      0.000u      0.000s      0.004w     11 calls
| PK computes JK                    :      0.000u      0.000s      0.004w     11 calls
JK: AO2USO                          :      0.000u      0.000s      0.000w     11 calls

**************************************************************************************
