
    -----------------------------------------------------------------------
          Psi4: An Open-Source Ab Initio Electronic Structure Package
                               Psi4 1.3.2 release

                         Git: Rev {HEAD} ecbda83 


    R. M. Parrish, L. A. Burns, D. G. A. Smith, A. C. Simmonett,
    A. E. DePrince III, E. G. Hohenstein, U. Bozkaya, A. Yu. Sokolov,
    R. Di Remigio, R. M. Richard, J. F. Gonthier, A. M. James,
    H. R. McAlexander, A. Kumar, M. Saitow, X. Wang, B. P. Pritchard,
    P. Verma, H. F. Schaefer III, K. Patkowski, R. A. King, E. F. Valeev,
    F. A. Evangelista, J. M. Turney, T. D. Crawford, and C. D. Sherrill,
    J. Chem. Theory Comput. 13(7) pp 3185--3197 (2017).
    (doi: 10.1021/acs.jctc.7b00174)


                         Additional Contributions by
    P. Kraus, H. Kruse, M. H. Lechner, M. C. Schieber, R. A. Shaw,
    A. Alenaizan, R. Galvelis, Z. L. Glick, S. Lehtola, and J. P. Misiewicz

    -----------------------------------------------------------------------


    Psi4 started on: Friday, 19 July 2019 05:53PM

    Process ID: 19650
    Host:       adabbott
    PSIDATADIR: /home/adabbott/anaconda3/envs/peslearn/share/psi4
    Memory:     500.0 MiB
    Threads:    1
    
  ==> Input File <==

--------------------------------------------------------------------------
# density fitted hartree fock 
molecule h2o {
0 1
H 0.0000000000 0.0000000000 0.9000000000
H 0.0000000000 0.9406100416 -0.2229286751
O 0.0000000000 0.0000000000 0.0000000000
}

set scf_type pk
set basis 6-31g
gradient('hf')

--------------------------------------------------------------------------
gradient() will perform analytic gradient computation.

*** tstart() called on adabbott
*** at Fri Jul 19 17:53:46 2019

   => Loading Basis Set <=

    Name: 6-31G
    Role: ORBITAL
    Keyword: BASIS
    atoms 1-2 entry H          line    26 file /home/adabbott/anaconda3/envs/peslearn/share/psi4/basis/6-31g.gbs 
    atoms 3   entry O          line   117 file /home/adabbott/anaconda3/envs/peslearn/share/psi4/basis/6-31g.gbs 


         ---------------------------------------------------------
                                   SCF
               by Justin Turney, Rob Parrish, Andy Simmonett
                          and Daniel G. A. Smith
                              RHF Reference
                        1 Threads,    500 MiB Core
         ---------------------------------------------------------

  ==> Geometry <==

    Molecular point group: cs
    Full point group: Cs

    Geometry (in Angstrom), charge = 0, multiplicity = 1:

       Center              X                  Y                   Z               Mass       
    ------------   -----------------  -----------------  -----------------  -----------------
         H            0.052634126810    -0.862112824233     0.000000000000     1.007825032230
         H           -0.887975914790     0.260815850867     0.000000000000     1.007825032230
         O            0.052634126810     0.037887175767     0.000000000000    15.994914619570

  Running in cs symmetry.

  Rotational constants: A =     28.38335  B =     15.48817  C =     10.02031 [cm^-1]
  Rotational constants: A = 850911.49583  B = 464323.73928  C = 300401.32517 [MHz]
  Nuclear repulsion =    9.444450981934061

  Charge       = 0
  Multiplicity = 1
  Electrons    = 10
  Nalpha       = 5
  Nbeta        = 5

  ==> Algorithm <==

  SCF Algorithm Type is PK.
  DIIS enabled.
  MOM disabled.
  Fractional occupation disabled.
  Guess Type is SAD.
  Energy threshold   = 1.00e-08
  Density threshold  = 1.00e-08
  Integral threshold = 0.00e+00

  ==> Primary Basis <==

  Basis Set: 6-31G
    Blend: 6-31G
    Number of shells: 9
    Number of basis function: 13
    Number of Cartesian functions: 13
    Spherical Harmonics?: false
    Max angular momentum: 1

  ==> Pre-Iterations <==

   -------------------------------------------------------
    Irrep   Nso     Nmo     Nalpha   Nbeta   Ndocc  Nsocc
   -------------------------------------------------------
     A'        11      11       0       0       0       0
     A"         2       2       0       0       0       0
   -------------------------------------------------------
    Total      13      13       5       5       5       0
   -------------------------------------------------------

  ==> Integral Setup <==

  Using in-core PK algorithm.
   Calculation information:
      Number of atoms:                   3
      Number of AO shells:               9
      Number of primitives:             22
      Number of atomic orbitals:        13
      Number of basis functions:        13

      Integral cutoff                 1.00e-12
      Number of threads:                 1

  Performing in-core PK
  Using 8372 doubles for integral storage.
  We computed 1035 shell quartets total.
  Whereas there are 1035 unique shell quartets.

  ==> DiskJK: Disk-Based J/K Matrices <==

    J tasked:                  Yes
    K tasked:                  Yes
    wK tasked:                  No
    Memory [MiB]:              375
    Schwarz Cutoff:          1E-12

    OpenMP threads:              1

  Minimum eigenvalue in the overlap matrix is 6.3488679282E-02.
  Using Symmetric Orthogonalization.

  SCF Guess: Superposition of Atomic Densities via on-the-fly atomic UHF.

  ==> Iterations <==

                        Total Energy        Delta E     RMS |[F,P]|

   @RHF iter SAD:   -75.56042374350740   -7.55604e+01   0.00000e+00 
   @RHF iter   1:   -75.90595702575592   -3.45533e-01   3.65976e-02 DIIS
   @RHF iter   2:   -75.96134902498819   -5.53920e-02   2.06000e-02 DIIS
   @RHF iter   3:   -75.97954022910645   -1.81912e-02   1.69675e-03 DIIS
   @RHF iter   4:   -75.97983640355871   -2.96174e-04   2.87104e-04 DIIS
   @RHF iter   5:   -75.97984583950566   -9.43595e-06   4.34929e-05 DIIS
   @RHF iter   6:   -75.97984613649584   -2.96990e-07   7.18685e-06 DIIS
   @RHF iter   7:   -75.97984614487913   -8.38330e-09   1.38066e-06 DIIS
   @RHF iter   8:   -75.97984614520561   -3.26480e-10   2.69032e-07 DIIS
   @RHF iter   9:   -75.97984614521523   -9.62075e-12   2.77646e-08 DIIS
   @RHF iter  10:   -75.97984614521553   -2.98428e-13   3.55889e-09 DIIS
  Energy and wave function converged.


  ==> Post-Iterations <==

    Orbital Energies [Eh]
    ---------------------

    Doubly Occupied:                                                      

       1Ap   -20.556371     2Ap    -1.372341     3Ap    -0.721852  
       4Ap    -0.566203     1App   -0.503442  

    Virtual:                                                              

       5Ap     0.207825     6Ap     0.306359     7Ap     1.054347  
       2App    1.163945     8Ap     1.207316     9Ap     1.239366  
      10Ap     1.395538    11Ap     1.700516  

    Final Occupation by Irrep:
             Ap   App 
    DOCC [     4,    1 ]

  @RHF Final Energy:   -75.97984614521553

   => Energetics <=

    Nuclear Repulsion Energy =              9.4444509819340610
    One-Electron Energy =                -123.4081759303983290
    Two-Electron Energy =                  37.9838788032487287
    Total Energy =                        -75.9798461452155323

Computation Completed


Properties will be evaluated at   0.000000,   0.000000,   0.000000 [a0]

Properties computed using the SCF density matrix

  Nuclear Dipole Moment: [e a0]
     X:    -0.7829      Y:    -0.5635      Z:     0.0000

  Electronic Dipole Moment: [e a0]
     X:    -0.0392      Y:    -0.0713      Z:     0.0000

  Dipole Moment: [e a0]
     X:    -0.8220      Y:    -0.6348      Z:     0.0000     Total:     1.0386

  Dipole Moment: [D]
     X:    -2.0894      Y:    -1.6135      Z:     0.0000     Total:     2.6399


*** tstop() called on adabbott at Fri Jul 19 17:53:46 2019
Module time:
	user time   =       0.32 seconds =       0.01 minutes
	system time =       0.01 seconds =       0.00 minutes
	total time  =          0 seconds =       0.00 minutes
Total time:
	user time   =       0.32 seconds =       0.01 minutes
	system time =       0.01 seconds =       0.00 minutes
	total time  =          0 seconds =       0.00 minutes

*** tstart() called on adabbott
*** at Fri Jul 19 17:53:46 2019


         ------------------------------------------------------------
                                   SCF GRAD                          
                          Rob Parrish, Justin Turney,                
                       Andy Simmonett, and Alex Sokolov              
         ------------------------------------------------------------

  ==> Geometry <==

    Molecular point group: cs
    Full point group: Cs

    Geometry (in Angstrom), charge = 0, multiplicity = 1:

       Center              X                  Y                   Z               Mass       
    ------------   -----------------  -----------------  -----------------  -----------------
         H            0.052634126810    -0.862112824233     0.000000000000     1.007825032230
         H           -0.887975914790     0.260815850867     0.000000000000     1.007825032230
         O            0.052634126810     0.037887175767     0.000000000000    15.994914619570

  Nuclear repulsion =    9.444450981934061

  ==> Basis Set <==

  Basis Set: 6-31G
    Blend: 6-31G
    Number of shells: 9
    Number of basis function: 13
    Number of Cartesian functions: 13
    Spherical Harmonics?: false
    Max angular momentum: 1

  ==> DirectJKGrad: Integral-Direct SCF Gradients <==

    Gradient:                    1
    J tasked:                  Yes
    K tasked:                  Yes
    wK tasked:                  No
    Integrals threads:           1
    Schwarz Cutoff:          0E+00


  -Total Gradient:
     Atom            X                  Y                   Z
    ------   -----------------  -----------------  -----------------
       1       -0.017496262888     0.072408216106     0.000000000000
       2       -0.015925898926    -0.012966368199     0.000000000000
       3        0.033422161813    -0.059441847908     0.000000000000


*** tstop() called on adabbott at Fri Jul 19 17:53:46 2019
Module time:
	user time   =       0.05 seconds =       0.00 minutes
	system time =       0.00 seconds =       0.00 minutes
	total time  =          0 seconds =       0.00 minutes
Total time:
	user time   =       0.37 seconds =       0.01 minutes
	system time =       0.01 seconds =       0.00 minutes
	total time  =          0 seconds =       0.00 minutes

    Psi4 stopped on: Friday, 19 July 2019 05:53PM
    Psi4 wall time for execution: 0:00:00.38

*** Psi4 exiting successfully. Buy a developer a beer!
