
    -----------------------------------------------------------------------
          Psi4: An Open-Source Ab Initio Electronic Structure Package
                               Psi4 1.2a1.dev429 

                         Git: Rev {fixsym} 7838fc1 dirty


    R. M. Parrish, L. A. Burns, D. G. A. Smith, A. C. Simmonett,
    A. E. DePrince III, E. G. Hohenstein, U. Bozkaya, A. Yu. Sokolov,
    R. Di Remigio, R. M. Richard, J. F. Gonthier, A. M. James,
    H. R. McAlexander, A. Kumar, M. Saitow, X. Wang, B. P. Pritchard,
    P. Verma, H. F. Schaefer III, K. Patkowski, R. A. King, E. F. Valeev,
    F. A. Evangelista, J. M. Turney, T. D. Crawford, and C. D. Sherrill,
    J. Chem. Theory Comput. in press (2017).
    (doi: 10.1021/acs.jctc.7b00174)

    -----------------------------------------------------------------------


    Psi4 started on: Thursday, 01 March 2018 03:18PM

    Process ID:  17634
    PSIDATADIR: /home/adabbott/Git/psi4/objdir/stage/usr/local/psi4/share/psi4
    Memory:     500.0 MiB
    Threads:    1
    
  ==> Input File <==

--------------------------------------------------------------------------
memory 1000 mb

molecule h2o {
0 1
O
H 1 1.0
H 1 1.0  2 104.5
}

set {
    basis 6-31g
    reference rhf
}


energy('ccsd')
--------------------------------------------------------------------------

  Memory set to 953.674 MiB by Python driver.

*** tstart() called on adabbott
*** at Thu Mar  1 15:18:27 2018

   => Loading Basis Set <=

    Name: 6-31G
    Role: ORBITAL
    Keyword: BASIS
    atoms 1   entry O          line   113 file /home/adabbott/Git/psi4/objdir/stage/usr/local/psi4/share/psi4/basis/6-31g.gbs 
    atoms 2-3 entry H          line    22 file /home/adabbott/Git/psi4/objdir/stage/usr/local/psi4/share/psi4/basis/6-31g.gbs 


         ---------------------------------------------------------
                                   SCF
            by Justin Turney, Rob Parrish, Andy Simmonett
                             and Daniel Smith
                              RHF Reference
                        1 Threads,    953 MiB Core
         ---------------------------------------------------------

  ==> Geometry <==

    Molecular point group: c2v
    Full point group: C2v

    Geometry (in Angstrom), charge = 0, multiplicity = 1:

       Center              X                  Y                   Z               Mass       
    ------------   -----------------  -----------------  -----------------  -----------------
           O          0.000000000000     0.000000000000    -0.068516219310    15.994914619560
           H          0.000000000000    -0.790689573744     0.543701060724     1.007825032070
           H          0.000000000000     0.790689573744     0.543701060724     1.007825032070

  Running in c2v symmetry.

  Rotational constants: A =     25.12555  B =     13.37733  C =      8.72955 [cm^-1]
  Rotational constants: A = 753245.06586  B = 401042.16407  C = 261705.25278 [MHz]
  Nuclear repulsion =    8.801465529972067

  Charge       = 0
  Multiplicity = 1
  Electrons    = 10
  Nalpha       = 5
  Nbeta        = 5

  ==> Algorithm <==

  SCF Algorithm Type is PK.
  DIIS enabled.
  MOM disabled.
  Fractional occupation disabled.
  Guess Type is SAD.
  Energy threshold   = 1.00e-08
  Density threshold  = 1.00e-08
  Integral threshold = 0.00e+00

  ==> Primary Basis <==

  Basis Set: 6-31G
    Blend: 6-31G
    Number of shells: 9
    Number of basis function: 13
    Number of Cartesian functions: 13
    Spherical Harmonics?: false
    Max angular momentum: 1

  ==> Pre-Iterations <==

   -------------------------------------------------------
    Irrep   Nso     Nmo     Nalpha   Nbeta   Ndocc  Nsocc
   -------------------------------------------------------
     A1         7       7       0       0       0       0
     A2         0       0       0       0       0       0
     B1         2       2       0       0       0       0
     B2         4       4       0       0       0       0
   -------------------------------------------------------
    Total      13      13       5       5       5       0
   -------------------------------------------------------

  ==> Integral Setup <==

  Using in-core PK algorithm.
   Calculation information:
      Number of atoms:                   3
      Number of AO shells:               9
      Number of primitives:             22
      Number of atomic orbitals:        13
      Number of basis functions:        13

      Integral cutoff                 1.00e-12
      Number of threads:                 1

  Performing in-core PK
  Using 8372 doubles for integral storage.
  We computed 1035 shell quartets total.
  Whereas there are 1035 unique shell quartets.
  ==> DiskJK: Disk-Based J/K Matrices <==

    J tasked:                  Yes
    K tasked:                  Yes
    wK tasked:                  No
    Memory (MB):               715
    Schwarz Cutoff:          1E-12

    OpenMP threads:              1
  Minimum eigenvalue in the overlap matrix is 7.3923789377E-02.
  Using Symmetric Orthogonalization.

  SCF Guess: Superposition of Atomic Densities via on-the-fly atomic UHF.

  ==> Iterations <==

                        Total Energy        Delta E     RMS |[F,P]|

   @RHF iter   0:   -75.82925701077670   -7.58293e+01   1.82420e-01 
   @RHF iter   1:   -75.96050167179675   -1.31245e-01   2.52778e-02 
   @RHF iter   2:   -75.97550699663626   -1.50053e-02   1.32736e-02 DIIS
   @RHF iter   3:   -75.97999505278393   -4.48806e-03   1.81201e-03 DIIS
   @RHF iter   4:   -75.98014508623604   -1.50033e-04   3.34284e-04 DIIS
   @RHF iter   5:   -75.98015725511819   -1.21689e-05   7.66686e-05 DIIS
   @RHF iter   6:   -75.98015791055920   -6.55441e-07   1.08677e-05 DIIS
   @RHF iter   7:   -75.98015792118217   -1.06230e-08   1.26665e-06 DIIS
   @RHF iter   8:   -75.98015792130663   -1.24459e-10   1.47809e-07 DIIS
   @RHF iter   9:   -75.98015792130754   -9.09495e-13   1.35533e-08 DIIS
   @RHF iter  10:   -75.98015792130758   -4.26326e-14   1.59862e-09 DIIS

  ==> Post-Iterations <==

    Orbital Energies (a.u.)
    -----------------------

    Doubly Occupied:                                                      

       1A1   -20.568891     2A1    -1.334712     1B2    -0.686878  
       3A1    -0.554302     1B1    -0.499291  

    Virtual:                                                              

       4A1     0.193411     2B2     0.287589     3B2     1.041437  
       5A1     1.130316     2B1     1.164392     6A1     1.220937  
       4B2     1.368875     7A1     1.693480  

    Final Occupation by Irrep:
             A1    A2    B1    B2 
    DOCC [     3,    0,    1,    1 ]

  Energy converged.

  @RHF Final Energy:   -75.98015792130758

   => Energetics <=

    Nuclear Repulsion Energy =              8.8014655299720665
    One-Electron Energy =                -122.2750962928101615
    Two-Electron Energy =                  37.4934728415305187
    Total Energy =                        -75.9801579213075797



Properties will be evaluated at   0.000000,   0.000000,   0.000000 Bohr

Properties computed using the SCF density matrix

  Nuclear Dipole Moment: (a.u.)
     X:     0.0000      Y:     0.0000      Z:     1.0191

  Electronic Dipole Moment: (a.u.)
     X:     0.0000      Y:     0.0000      Z:     0.0213

  Dipole Moment: (a.u.)
     X:     0.0000      Y:     0.0000      Z:     1.0404     Total:     1.0404

  Dipole Moment: (Debye)
     X:     0.0000      Y:     0.0000      Z:     2.6444     Total:     2.6444


*** tstop() called on adabbott at Thu Mar  1 15:18:28 2018
Module time:
	user time   =       0.16 seconds =       0.00 minutes
	system time =       0.00 seconds =       0.00 minutes
	total time  =          1 seconds =       0.02 minutes
Total time:
	user time   =       0.16 seconds =       0.00 minutes
	system time =       0.00 seconds =       0.00 minutes
	total time  =          1 seconds =       0.02 minutes
 MINTS: Wrapper to libmints.
   by Justin Turney

   Calculation information:
      Number of threads:                 1
      Number of atoms:                   3
      Number of AO shells:               9
      Number of SO shells:               7
      Number of primitives:             22
      Number of atomic orbitals:        13
      Number of basis functions:        13

      Number of irreps:                  4
      Integral cutoff                 0.00e+00
      Number of functions per irrep: [   7    0    2    4 ]

 OEINTS: Overlap, kinetic, potential, dipole, and quadrupole integrals
         stored in file 35.

      Computing two-electron integrals...done
      Computed 1270 non-zero two-electron integrals.
        Stored in file 33.


*** tstart() called on adabbott
*** at Thu Mar  1 15:18:28 2018


	Wfn Parameters:
	--------------------
	Wavefunction         = CCSD
	Number of irreps     = 4
	Number of MOs        = 13
	Number of active MOs = 13
	AO-Basis             = NONE
	Semicanonical        = false
	Reference            = RHF
	Print Level          = 1

	IRREP	# MOs	# FZDC	# DOCC	# SOCC	# VIRT	# FZVR
	-----	-----	------	------	------	------	------
	 A1	   7	    0	    3	    0	    4	    0
	 A2	   0	    0	    0	    0	    0	    0
	 B1	   2	    0	    1	    0	    1	    0
	 B2	   4	    0	    1	    0	    3	    0
	Transforming integrals...
	IWL integrals will be deleted.
	(OO|OO)...
	Presorting SO-basis two-electron integrals.
	Sorting File: SO Ints (nn|nn) nbuckets = 1
	Transforming the one-electron integrals and constructing Fock matrices
	Starting first half-transformation.
	Sorting half-transformed integrals.
	First half integral transformation complete.
	Starting second half-transformation.
	Two-electron integral transformation complete.
	(OO|OV)...
	Starting second half-transformation.
	Two-electron integral transformation complete.
	(OO|VV)...
	Starting second half-transformation.
	Two-electron integral transformation complete.
	(OV|OO)...
	Starting first half-transformation.
	Sorting half-transformed integrals.
	First half integral transformation complete.
	Starting second half-transformation.
	Two-electron integral transformation complete.
	(OV|OV)...
	Starting second half-transformation.
	Two-electron integral transformation complete.
	(OV|VV)...
	Starting second half-transformation.
	Two-electron integral transformation complete.
	(VV|OO)...
	Starting first half-transformation.
	Sorting half-transformed integrals.
	First half integral transformation complete.
	Starting second half-transformation.
	Two-electron integral transformation complete.
	(VV|OV)...
	Starting second half-transformation.
	Two-electron integral transformation complete.
	(VV|VV)...
	Starting second half-transformation.
	Two-electron integral transformation complete.
	Frozen core energy     =      0.00000000000000

	Size of irrep 0 of <ab|cd> integrals:      0.001 (MW) /      0.005 (MB)
	Size of irrep 1 of <ab|cd> integrals:      0.000 (MW) /      0.000 (MB)
	Size of irrep 2 of <ab|cd> integrals:      0.000 (MW) /      0.001 (MB)
	Size of irrep 3 of <ab|cd> integrals:      0.001 (MW) /      0.005 (MB)
	Total:                                     0.001 (MW) /      0.011 (MB)

	Size of irrep 0 of <ia|bc> integrals:      0.000 (MW) /      0.003 (MB)
	Size of irrep 1 of <ia|bc> integrals:      0.000 (MW) /      0.000 (MB)
	Size of irrep 2 of <ia|bc> integrals:      0.000 (MW) /      0.000 (MB)
	Size of irrep 3 of <ia|bc> integrals:      0.000 (MW) /      0.002 (MB)
	Total:                                     0.001 (MW) /      0.006 (MB)

	Size of irrep 0 of tijab amplitudes:       0.000 (MW) /      0.002 (MB)
	Size of irrep 1 of tijab amplitudes:       0.000 (MW) /      0.000 (MB)
	Size of irrep 2 of tijab amplitudes:       0.000 (MW) /      0.000 (MB)
	Size of irrep 3 of tijab amplitudes:       0.000 (MW) /      0.001 (MB)
	Total:                                     0.000 (MW) /      0.004 (MB)

	Nuclear Rep. energy          =      8.80146552997207
	SCF energy                   =    -75.98015792130758
	One-electron energy          =   -122.27509630358466
	Two-electron energy          =     37.49347285230500
	Reference energy             =    -75.98015792130759

*** tstop() called on adabbott at Thu Mar  1 15:18:28 2018
Module time:
	user time   =       0.00 seconds =       0.00 minutes
	system time =       0.01 seconds =       0.00 minutes
	total time  =          0 seconds =       0.00 minutes
Total time:
	user time   =       0.17 seconds =       0.00 minutes
	system time =       0.01 seconds =       0.00 minutes
	total time  =          1 seconds =       0.02 minutes

*** tstart() called on adabbott
*** at Thu Mar  1 15:18:28 2018

            **************************
            *                        *
            *        CCENERGY        *
            *                        *
            **************************

    Nuclear Rep. energy (wfn)     =    8.801465529972067
    SCF energy          (wfn)     =  -75.980157921307580
    Reference energy    (file100) =  -75.980157921307594

    Input parameters:
    -----------------
    Wave function   =     CCSD
    Reference wfn   =     RHF
    Brueckner       =     No
    Memory (Mbytes) =     1000.0
    Maxiter         =     50
    R_Convergence   =     1.0e-07
    E_Convergence   =     1.0e-06
    Restart         =     Yes
    DIIS            =     Yes
    AO Basis        =     NONE
    ABCD            =     NEW
    Cache Level     =     2
    Cache Type      =     LOW
    Print Level     =     1
    Num. of threads =     1
    # Amps to Print =     10
    Print MP2 Amps? =     No
    Analyze T2 Amps =     No
    Print Pair Ener =     No
    Local CC        =     No
    SCS-MP2         =     False
    SCSN-MP2        =     False
    SCS-CCSD        =     False

MP2 correlation energy -0.1327273372105383
                Solving CC Amplitude Equations
                ------------------------------
  Iter             Energy              RMS        T1Diag      D1Diag    New D1Diag    D2Diag
  ----     ---------------------    ---------   ----------  ----------  ----------   --------
     0        -0.132727337210538    0.000e+00    0.000000    0.000000    0.000000    0.104105
     1        -0.134589930227524    2.973e-02    0.004967    0.010084    0.010084    0.113786
     2        -0.138786973358745    1.159e-02    0.006104    0.012740    0.012740    0.121780
     3        -0.139364364965107    2.945e-03    0.006640    0.014402    0.014402    0.123671
     4        -0.139399028679796    7.447e-04    0.006696    0.014765    0.014765    0.123922
     5        -0.139413091294844    2.308e-04    0.006738    0.014976    0.014976    0.123962
     6        -0.139407602271350    6.670e-05    0.006752    0.015042    0.015042    0.123940
     7        -0.139407071534627    1.450e-05    0.006755    0.015058    0.015058    0.123936
     8        -0.139406988506645    2.993e-06    0.006756    0.015061    0.015061    0.123936
     9        -0.139406913714884    7.226e-07    0.006756    0.015061    0.015061    0.123936
    10        -0.139406927275855    1.250e-07    0.006756    0.015061    0.015061    0.123936
    11        -0.139406925427227    2.562e-08    0.006756    0.015061    0.015061    0.123936

    Iterations converged.


    Largest TIA Amplitudes:
              2   0         0.0128556591
              4   7         0.0100625361
              4   5        -0.0076287198
              2   3        -0.0065077240
              3   4        -0.0062342978
              1   2        -0.0052561489
              1   0        -0.0032974126
              4   6        -0.0027747769
              1   3         0.0013849931
              2   2         0.0011500401

    Largest TIjAb Amplitudes:
      3   3   4   4        -0.0533061684
      4   4   5   5        -0.0477436554
      2   2   2   2        -0.0398839206
      2   3   2   4        -0.0309510657
      3   2   4   2        -0.0309510657
      4   4   6   6        -0.0284556962
      2   2   0   0        -0.0266999277
      2   4   0   5         0.0264818992
      4   2   5   0         0.0264818992
      3   4   4   7        -0.0260449088

    SCF energy       (wfn)                    =  -75.980157921307580
    Reference energy (file100)                =  -75.980157921307594

    Opposite-spin MP2 correlation energy      =   -0.101705451820886
    Same-spin MP2 correlation energy          =   -0.031021885389652
    MP2 correlation energy                    =   -0.132727337210538
      * MP2 total energy                      =  -76.112885258518133

    Opposite-spin CCSD correlation energy     =   -0.114888689682087
    Same-spin CCSD correlation energy         =   -0.024518235810838
    CCSD correlation energy                   =   -0.139406925427227
      * CCSD total energy                     =  -76.119564846734818


*** tstop() called on adabbott at Thu Mar  1 15:18:28 2018
Module time:
	user time   =       0.06 seconds =       0.00 minutes
	system time =       0.08 seconds =       0.00 minutes
	total time  =          0 seconds =       0.00 minutes
Total time:
	user time   =       0.23 seconds =       0.00 minutes
	system time =       0.09 seconds =       0.00 minutes
	total time  =          1 seconds =       0.02 minutes

*** Psi4 exiting successfully. Buy a developer a beer!
