
    -----------------------------------------------------------------------
          Psi4: An Open-Source Ab Initio Electronic Structure Package
                               Psi4 1.3.2 release

                         Git: Rev {HEAD} ecbda83 


    R. M. Parrish, L. A. Burns, D. G. A. Smith, A. C. Simmonett,
    A. E. DePrince III, E. G. Hohenstein, U. Bozkaya, A. Yu. Sokolov,
    R. Di Remigio, R. M. Richard, J. F. Gonthier, A. M. James,
    H. R. McAlexander, A. Kumar, M. Saitow, X. Wang, B. P. Pritchard,
    P. Verma, H. F. Schaefer III, K. Patkowski, R. A. King, E. F. Valeev,
    F. A. Evangelista, J. M. Turney, T. D. Crawford, and C. D. Sherrill,
    J. Chem. Theory Comput. 13(7) pp 3185--3197 (2017).
    (doi: 10.1021/acs.jctc.7b00174)


                         Additional Contributions by
    P. Kraus, H. Kruse, M. H. Lechner, M. C. Schieber, R. A. Shaw,
    A. Alenaizan, R. Galvelis, Z. L. Glick, S. Lehtola, and J. P. Misiewicz

    -----------------------------------------------------------------------


    Psi4 started on: Friday, 19 July 2019 05:53PM

    Process ID: 19406
    Host:       adabbott
    PSIDATADIR: /home/adabbott/anaconda3/envs/peslearn/share/psi4
    Memory:     500.0 MiB
    Threads:    1
    
  ==> Input File <==

--------------------------------------------------------------------------
# density fitted hartree fock 
molecule h2o {
0 1
H 0.0000000000 0.0000000000 0.9333333333
H 0.0000000000 0.8371578903 -0.4833333333
O 0.0000000000 0.0000000000 0.0000000000
}

set scf_type pk
set basis 6-31g
gradient('hf')

--------------------------------------------------------------------------
gradient() will perform analytic gradient computation.

*** tstart() called on adabbott
*** at Fri Jul 19 17:53:00 2019

   => Loading Basis Set <=

    Name: 6-31G
    Role: ORBITAL
    Keyword: BASIS
    atoms 1-2 entry H          line    26 file /home/adabbott/anaconda3/envs/peslearn/share/psi4/basis/6-31g.gbs 
    atoms 3   entry O          line   117 file /home/adabbott/anaconda3/envs/peslearn/share/psi4/basis/6-31g.gbs 


         ---------------------------------------------------------
                                   SCF
               by Justin Turney, Rob Parrish, Andy Simmonett
                          and Daniel G. A. Smith
                              RHF Reference
                        1 Threads,    500 MiB Core
         ---------------------------------------------------------

  ==> Geometry <==

    Molecular point group: cs
    Full point group: Cs

    Geometry (in Angstrom), charge = 0, multiplicity = 1:

       Center              X                  Y                   Z               Mass       
    ------------   -----------------  -----------------  -----------------  -----------------
         H            0.046845209608    -0.908152486810     0.000000000000     1.007825032230
         H           -0.790312680692     0.508514179790     0.000000000000     1.007825032230
         O            0.046845209608     0.025180846490     0.000000000000    15.994914619570

  Running in cs symmetry.

  Rotational constants: A =     41.79756  B =     12.34607  C =      9.53087 [cm^-1]
  Rotational constants: A = 1253059.27046  B = 370126.00779  C = 285728.21077 [MHz]
  Nuclear repulsion =    9.236786409505481

  Charge       = 0
  Multiplicity = 1
  Electrons    = 10
  Nalpha       = 5
  Nbeta        = 5

  ==> Algorithm <==

  SCF Algorithm Type is PK.
  DIIS enabled.
  MOM disabled.
  Fractional occupation disabled.
  Guess Type is SAD.
  Energy threshold   = 1.00e-08
  Density threshold  = 1.00e-08
  Integral threshold = 0.00e+00

  ==> Primary Basis <==

  Basis Set: 6-31G
    Blend: 6-31G
    Number of shells: 9
    Number of basis function: 13
    Number of Cartesian functions: 13
    Spherical Harmonics?: false
    Max angular momentum: 1

  ==> Pre-Iterations <==

   -------------------------------------------------------
    Irrep   Nso     Nmo     Nalpha   Nbeta   Ndocc  Nsocc
   -------------------------------------------------------
     A'        11      11       0       0       0       0
     A"         2       2       0       0       0       0
   -------------------------------------------------------
    Total      13      13       5       5       5       0
   -------------------------------------------------------

  ==> Integral Setup <==

  Using in-core PK algorithm.
   Calculation information:
      Number of atoms:                   3
      Number of AO shells:               9
      Number of primitives:             22
      Number of atomic orbitals:        13
      Number of basis functions:        13

      Integral cutoff                 1.00e-12
      Number of threads:                 1

  Performing in-core PK
  Using 8372 doubles for integral storage.
  We computed 1035 shell quartets total.
  Whereas there are 1035 unique shell quartets.

  ==> DiskJK: Disk-Based J/K Matrices <==

    J tasked:                  Yes
    K tasked:                  Yes
    wK tasked:                  No
    Memory [MiB]:              375
    Schwarz Cutoff:          1E-12

    OpenMP threads:              1

  Minimum eigenvalue in the overlap matrix is 7.0832122304E-02.
  Using Symmetric Orthogonalization.

  SCF Guess: Superposition of Atomic Densities via on-the-fly atomic UHF.

  ==> Iterations <==

                        Total Energy        Delta E     RMS |[F,P]|

   @RHF iter SAD:   -75.52008632404774   -7.55201e+01   0.00000e+00 
   @RHF iter   1:   -75.91470918506650   -3.94623e-01   3.58203e-02 DIIS
   @RHF iter   2:   -75.96487372110954   -5.01645e-02   2.02865e-02 DIIS
   @RHF iter   3:   -75.98263485113213   -1.77611e-02   1.67615e-03 DIIS
   @RHF iter   4:   -75.98294546934983   -3.10618e-04   3.03591e-04 DIIS
   @RHF iter   5:   -75.98295878884008   -1.33195e-05   5.34659e-05 DIIS
   @RHF iter   6:   -75.98295937424467   -5.85405e-07   1.20954e-05 DIIS
   @RHF iter   7:   -75.98295940368595   -2.94413e-08   1.84891e-06 DIIS
   @RHF iter   8:   -75.98295940423010   -5.44148e-10   2.59833e-07 DIIS
   @RHF iter   9:   -75.98295940423628   -6.18172e-12   2.67180e-08 DIIS
   @RHF iter  10:   -75.98295940423635   -7.10543e-14   3.26249e-09 DIIS
  Energy and wave function converged.


  ==> Post-Iterations <==

    Orbital Energies [Eh]
    ---------------------

    Doubly Occupied:                                                      

       1Ap   -20.546490     2Ap    -1.343321     3Ap    -0.738474  
       4Ap    -0.532385     1App   -0.493803  

    Virtual:                                                              

       5Ap     0.207000     6Ap     0.303859     7Ap     1.099832  
       2App    1.170663     8Ap     1.171575     9Ap     1.203672  
      10Ap     1.400288    11Ap     1.659267  

    Final Occupation by Irrep:
             Ap   App 
    DOCC [     4,    1 ]

  @RHF Final Energy:   -75.98295940423635

   => Energetics <=

    Nuclear Repulsion Energy =              9.2367864095054806
    One-Electron Energy =                -123.1305460980334345
    Two-Electron Energy =                  37.9108002842915965
    Total Energy =                        -75.9829594042363539

Computation Completed


Properties will be evaluated at   0.000000,   0.000000,   0.000000 [a0]

Properties computed using the SCF density matrix

  Nuclear Dipole Moment: [e a0]
     X:    -0.6968      Y:    -0.3745      Z:     0.0000

  Electronic Dipole Moment: [e a0]
     X:    -0.1032      Y:    -0.0723      Z:     0.0000

  Dipole Moment: [e a0]
     X:    -0.8000      Y:    -0.4468      Z:     0.0000     Total:     0.9163

  Dipole Moment: [D]
     X:    -2.0334      Y:    -1.1357      Z:     0.0000     Total:     2.3290


*** tstop() called on adabbott at Fri Jul 19 17:53:01 2019
Module time:
	user time   =       0.32 seconds =       0.01 minutes
	system time =       0.02 seconds =       0.00 minutes
	total time  =          1 seconds =       0.02 minutes
Total time:
	user time   =       0.32 seconds =       0.01 minutes
	system time =       0.02 seconds =       0.00 minutes
	total time  =          1 seconds =       0.02 minutes

*** tstart() called on adabbott
*** at Fri Jul 19 17:53:01 2019


         ------------------------------------------------------------
                                   SCF GRAD                          
                          Rob Parrish, Justin Turney,                
                       Andy Simmonett, and Alex Sokolov              
         ------------------------------------------------------------

  ==> Geometry <==

    Molecular point group: cs
    Full point group: Cs

    Geometry (in Angstrom), charge = 0, multiplicity = 1:

       Center              X                  Y                   Z               Mass       
    ------------   -----------------  -----------------  -----------------  -----------------
         H            0.046845209608    -0.908152486810     0.000000000000     1.007825032230
         H           -0.790312680692     0.508514179790     0.000000000000     1.007825032230
         O            0.046845209608     0.025180846490     0.000000000000    15.994914619570

  Nuclear repulsion =    9.236786409505481

  ==> Basis Set <==

  Basis Set: 6-31G
    Blend: 6-31G
    Number of shells: 9
    Number of basis function: 13
    Number of Cartesian functions: 13
    Spherical Harmonics?: false
    Max angular momentum: 1

  ==> DirectJKGrad: Integral-Direct SCF Gradients <==

    Gradient:                    1
    J tasked:                  Yes
    K tasked:                  Yes
    wK tasked:                  No
    Integrals threads:           1
    Schwarz Cutoff:          0E+00


  -Total Gradient:
     Atom            X                  Y                   Z
    ------   -----------------  -----------------  -----------------
       1        0.013287681376     0.014417134982     0.000000000000
       2       -0.014274314117     0.023055493705     0.000000000000
       3        0.000986632741    -0.037472628687     0.000000000000


*** tstop() called on adabbott at Fri Jul 19 17:53:01 2019
Module time:
	user time   =       0.04 seconds =       0.00 minutes
	system time =       0.00 seconds =       0.00 minutes
	total time  =          0 seconds =       0.00 minutes
Total time:
	user time   =       0.36 seconds =       0.01 minutes
	system time =       0.02 seconds =       0.00 minutes
	total time  =          1 seconds =       0.02 minutes

    Psi4 stopped on: Friday, 19 July 2019 05:53PM
    Psi4 wall time for execution: 0:00:00.39

*** Psi4 exiting successfully. Buy a developer a beer!
