
    -----------------------------------------------------------------------
          Psi4: An Open-Source Ab Initio Electronic Structure Package
                               Psi4 1.3.2 release

                         Git: Rev {HEAD} ecbda83 


    R. M. Parrish, L. A. Burns, D. G. A. Smith, A. C. Simmonett,
    A. E. DePrince III, E. G. Hohenstein, U. Bozkaya, A. Yu. Sokolov,
    R. Di Remigio, R. M. Richard, J. F. Gonthier, A. M. James,
    H. R. McAlexander, A. Kumar, M. Saitow, X. Wang, B. P. Pritchard,
    P. Verma, H. F. Schaefer III, K. Patkowski, R. A. King, E. F. Valeev,
    F. A. Evangelista, J. M. Turney, T. D. Crawford, and C. D. Sherrill,
    J. Chem. Theory Comput. 13(7) pp 3185--3197 (2017).
    (doi: 10.1021/acs.jctc.7b00174)


                         Additional Contributions by
    P. Kraus, H. Kruse, M. H. Lechner, M. C. Schieber, R. A. Shaw,
    A. Alenaizan, R. Galvelis, Z. L. Glick, S. Lehtola, and J. P. Misiewicz

    -----------------------------------------------------------------------


    Psi4 started on: Monday, 22 July 2019 01:01PM

    Process ID: 18050
    Host:       adabbott
    PSIDATADIR: /home/adabbott/anaconda3/envs/peslearn/share/psi4
    Memory:     500.0 MiB
    Threads:    1
    
  ==> Input File <==

--------------------------------------------------------------------------
# density fitted hartree fock 
molecule h2o {
0 1
H 0.0000000000 0.0000000000 1.0000000000
H 0.0000000000 0.8660254038 -0.5000000000
O 0.0000000000 0.0000000000 0.0000000000
}

set scf_type pk
set basis 6-31g
gradient('hf')

--------------------------------------------------------------------------
gradient() will perform analytic gradient computation.

*** tstart() called on adabbott
*** at Mon Jul 22 13:01:52 2019

   => Loading Basis Set <=

    Name: 6-31G
    Role: ORBITAL
    Keyword: BASIS
    atoms 1-2 entry H          line    26 file /home/adabbott/anaconda3/envs/peslearn/share/psi4/basis/6-31g.gbs 
    atoms 3   entry O          line   117 file /home/adabbott/anaconda3/envs/peslearn/share/psi4/basis/6-31g.gbs 


         ---------------------------------------------------------
                                   SCF
               by Justin Turney, Rob Parrish, Andy Simmonett
                          and Daniel G. A. Smith
                              RHF Reference
                        1 Threads,    500 MiB Core
         ---------------------------------------------------------

  ==> Geometry <==

    Molecular point group: c2v
    Full point group: C2v

    Geometry (in Angstrom), charge = 0, multiplicity = 1:

       Center              X                  Y                   Z               Mass       
    ------------   -----------------  -----------------  -----------------  -----------------
         H            0.000000000000    -0.866025403788     0.444042563362     1.007825032230
         H           -0.000000000000     0.866025403788     0.444042563362     1.007825032230
         O            0.000000000000     0.000000000000    -0.055957436645    15.994914619570

  Running in c2v symmetry.

  Rotational constants: A =     37.66923  B =     11.15116  C =      8.60410 [cm^-1]
  Rotational constants: A = 1129295.13485  B = 334303.40432  C = 257944.51002 [MHz]
  Nuclear repulsion =    8.772355975690918

  Charge       = 0
  Multiplicity = 1
  Electrons    = 10
  Nalpha       = 5
  Nbeta        = 5

  ==> Algorithm <==

  SCF Algorithm Type is PK.
  DIIS enabled.
  MOM disabled.
  Fractional occupation disabled.
  Guess Type is SAD.
  Energy threshold   = 1.00e-08
  Density threshold  = 1.00e-08
  Integral threshold = 0.00e+00

  ==> Primary Basis <==

  Basis Set: 6-31G
    Blend: 6-31G
    Number of shells: 9
    Number of basis function: 13
    Number of Cartesian functions: 13
    Spherical Harmonics?: false
    Max angular momentum: 1

  ==> Pre-Iterations <==

   -------------------------------------------------------
    Irrep   Nso     Nmo     Nalpha   Nbeta   Ndocc  Nsocc
   -------------------------------------------------------
     A1         7       7       0       0       0       0
     A2         0       0       0       0       0       0
     B1         2       2       0       0       0       0
     B2         4       4       0       0       0       0
   -------------------------------------------------------
    Total      13      13       5       5       5       0
   -------------------------------------------------------

  ==> Integral Setup <==

  Using in-core PK algorithm.
   Calculation information:
      Number of atoms:                   3
      Number of AO shells:               9
      Number of primitives:             22
      Number of atomic orbitals:        13
      Number of basis functions:        13

      Integral cutoff                 1.00e-12
      Number of threads:                 1

  Performing in-core PK
  Using 8372 doubles for integral storage.
  We computed 1035 shell quartets total.
  Whereas there are 1035 unique shell quartets.

  ==> DiskJK: Disk-Based J/K Matrices <==

    J tasked:                  Yes
    K tasked:                  Yes
    wK tasked:                  No
    Memory [MiB]:              375
    Schwarz Cutoff:          1E-12

    OpenMP threads:              1

  Minimum eigenvalue in the overlap matrix is 7.8093113046E-02.
  Using Symmetric Orthogonalization.

  SCF Guess: Superposition of Atomic Densities via on-the-fly atomic UHF.

  ==> Iterations <==

                        Total Energy        Delta E     RMS |[F,P]|

   @RHF iter SAD:   -75.44556237287766   -7.54456e+01   0.00000e+00 
   @RHF iter   1:   -75.90734881685114   -4.61786e-01   4.79702e-02 DIIS
   @RHF iter   2:   -75.95745243022621   -5.01036e-02   2.88931e-02 DIIS
   @RHF iter   3:   -75.97745623304735   -2.00038e-02   2.40179e-03 DIIS
   @RHF iter   4:   -75.97785326682796   -3.97034e-04   4.98323e-04 DIIS
   @RHF iter   5:   -75.97787302906409   -1.97622e-05   8.29734e-05 DIIS
   @RHF iter   6:   -75.97787382964577   -8.00582e-07   2.17425e-05 DIIS
   @RHF iter   7:   -75.97787388607912   -5.64334e-08   3.31264e-06 DIIS
   @RHF iter   8:   -75.97787388713861   -1.05949e-09   4.68087e-07 DIIS
   @RHF iter   9:   -75.97787388714987   -1.12550e-11   4.85491e-08 DIIS
   @RHF iter  10:   -75.97787388715011   -2.41585e-13   5.18134e-09 DIIS
  Energy and wave function converged.


  ==> Post-Iterations <==

    Orbital Energies [Eh]
    ---------------------

    Doubly Occupied:                                                      

       1A1   -20.555265     2A1    -1.318414     1B2    -0.708045  
       3A1    -0.525165     1B1    -0.490271  

    Virtual:                                                              

       4A1     0.192602     2B2     0.291968     5A1     1.053201  
       3B2     1.133222     2B1     1.171428     6A1     1.206682  
       4B2     1.399598     7A1     1.650789  

    Final Occupation by Irrep:
             A1    A2    B1    B2 
    DOCC [     3,    0,    1,    1 ]

  @RHF Final Energy:   -75.97787388715011

   => Energetics <=

    Nuclear Repulsion Energy =              8.7723559756909175
    One-Electron Energy =                -122.3061393757220401
    Two-Electron Energy =                  37.5559095128810014
    Total Energy =                        -75.9778738871501247

Computation Completed


Properties will be evaluated at   0.000000,   0.000000,   0.000000 [a0]

Properties computed using the SCF density matrix

  Nuclear Dipole Moment: [e a0]
     X:     0.0000      Y:     0.0000      Z:     0.8323

  Electronic Dipole Moment: [e a0]
     X:     0.0000      Y:     0.0000      Z:     0.0918

  Dipole Moment: [e a0]
     X:     0.0000      Y:     0.0000      Z:     0.9241     Total:     0.9241

  Dipole Moment: [D]
     X:     0.0000      Y:     0.0000      Z:     2.3488     Total:     2.3488


*** tstop() called on adabbott at Mon Jul 22 13:01:52 2019
Module time:
	user time   =       0.30 seconds =       0.00 minutes
	system time =       0.01 seconds =       0.00 minutes
	total time  =          0 seconds =       0.00 minutes
Total time:
	user time   =       0.30 seconds =       0.00 minutes
	system time =       0.01 seconds =       0.00 minutes
	total time  =          0 seconds =       0.00 minutes

*** tstart() called on adabbott
*** at Mon Jul 22 13:01:52 2019


         ------------------------------------------------------------
                                   SCF GRAD                          
                          Rob Parrish, Justin Turney,                
                       Andy Simmonett, and Alex Sokolov              
         ------------------------------------------------------------

  ==> Geometry <==

    Molecular point group: c2v
    Full point group: C2v

    Geometry (in Angstrom), charge = 0, multiplicity = 1:

       Center              X                  Y                   Z               Mass       
    ------------   -----------------  -----------------  -----------------  -----------------
         H            0.000000000000    -0.866025403788     0.444042563362     1.007825032230
         H           -0.000000000000     0.866025403788     0.444042563362     1.007825032230
         O            0.000000000000     0.000000000000    -0.055957436645    15.994914619570

  Nuclear repulsion =    8.772355975690918

  ==> Basis Set <==

  Basis Set: 6-31G
    Blend: 6-31G
    Number of shells: 9
    Number of basis function: 13
    Number of Cartesian functions: 13
    Spherical Harmonics?: false
    Max angular momentum: 1

  ==> DirectJKGrad: Integral-Direct SCF Gradients <==

    Gradient:                    1
    J tasked:                  Yes
    K tasked:                  Yes
    wK tasked:                  No
    Integrals threads:           1
    Schwarz Cutoff:          0E+00


  -Total Gradient:
     Atom            X                  Y                   Z
    ------   -----------------  -----------------  -----------------
       1        0.000000000000    -0.052502981540     0.012203378172
       2       -0.000000000000     0.052502981540     0.012203378172
       3       -0.000000000000     0.000000000000    -0.024406756344


*** tstop() called on adabbott at Mon Jul 22 13:01:52 2019
Module time:
	user time   =       0.04 seconds =       0.00 minutes
	system time =       0.00 seconds =       0.00 minutes
	total time  =          0 seconds =       0.00 minutes
Total time:
	user time   =       0.35 seconds =       0.01 minutes
	system time =       0.01 seconds =       0.00 minutes
	total time  =          0 seconds =       0.00 minutes

    Psi4 stopped on: Monday, 22 July 2019 01:01PM
    Psi4 wall time for execution: 0:00:00.37

*** Psi4 exiting successfully. Buy a developer a beer!
