
    -----------------------------------------------------------------------
          Psi4: An Open-Source Ab Initio Electronic Structure Package
                               Psi4 1.3.2 release

                         Git: Rev {HEAD} ecbda83 


    R. M. Parrish, L. A. Burns, D. G. A. Smith, A. C. Simmonett,
    A. E. DePrince III, E. G. Hohenstein, U. Bozkaya, A. Yu. Sokolov,
    R. Di Remigio, R. M. Richard, J. F. Gonthier, A. M. James,
    H. R. McAlexander, A. Kumar, M. Saitow, X. Wang, B. P. Pritchard,
    P. Verma, H. F. Schaefer III, K. Patkowski, R. A. King, E. F. Valeev,
    F. A. Evangelista, J. M. Turney, T. D. Crawford, and C. D. Sherrill,
    J. Chem. Theory Comput. 13(7) pp 3185--3197 (2017).
    (doi: 10.1021/acs.jctc.7b00174)


                         Additional Contributions by
    P. Kraus, H. Kruse, M. H. Lechner, M. C. Schieber, R. A. Shaw,
    A. Alenaizan, R. Galvelis, Z. L. Glick, S. Lehtola, and J. P. Misiewicz

    -----------------------------------------------------------------------


    Psi4 started on: Friday, 19 July 2019 05:52PM

    Process ID: 19248
    Host:       adabbott
    PSIDATADIR: /home/adabbott/anaconda3/envs/peslearn/share/psi4
    Memory:     500.0 MiB
    Threads:    1
    
  ==> Input File <==

--------------------------------------------------------------------------
# density fitted hartree fock 
molecule h2o {
0 1
H 0.0000000000 0.0000000000 0.9666666667
H 0.0000000000 0.8457233587 -0.3078181290
O 0.0000000000 0.0000000000 0.0000000000
}

set scf_type pk
set basis 6-31g
gradient('hf')

--------------------------------------------------------------------------
gradient() will perform analytic gradient computation.

*** tstart() called on adabbott
*** at Fri Jul 19 17:52:23 2019

   => Loading Basis Set <=

    Name: 6-31G
    Role: ORBITAL
    Keyword: BASIS
    atoms 1-2 entry H          line    26 file /home/adabbott/anaconda3/envs/peslearn/share/psi4/basis/6-31g.gbs 
    atoms 3   entry O          line   117 file /home/adabbott/anaconda3/envs/peslearn/share/psi4/basis/6-31g.gbs 


         ---------------------------------------------------------
                                   SCF
               by Justin Turney, Rob Parrish, Andy Simmonett
                          and Daniel G. A. Smith
                              RHF Reference
                        1 Threads,    500 MiB Core
         ---------------------------------------------------------

  ==> Geometry <==

    Molecular point group: cs
    Full point group: Cs

    Geometry (in Angstrom), charge = 0, multiplicity = 1:

       Center              X                  Y                   Z               Mass       
    ------------   -----------------  -----------------  -----------------  -----------------
         H            0.047324511263    -0.929799191394     0.000000000000     1.007825032230
         H           -0.798398847437     0.344685604306     0.000000000000     1.007825032230
         O            0.047324511263     0.036867475306     0.000000000000    15.994914619570

  Running in cs symmetry.

  Rotational constants: A =     33.11061  B =     14.23609  C =      9.95562 [cm^-1]
  Rotational constants: A = 992631.16620  B = 426787.28738  C = 298461.92413 [MHz]
  Nuclear repulsion =    9.429161563839987

  Charge       = 0
  Multiplicity = 1
  Electrons    = 10
  Nalpha       = 5
  Nbeta        = 5

  ==> Algorithm <==

  SCF Algorithm Type is PK.
  DIIS enabled.
  MOM disabled.
  Fractional occupation disabled.
  Guess Type is SAD.
  Energy threshold   = 1.00e-08
  Density threshold  = 1.00e-08
  Integral threshold = 0.00e+00

  ==> Primary Basis <==

  Basis Set: 6-31G
    Blend: 6-31G
    Number of shells: 9
    Number of basis function: 13
    Number of Cartesian functions: 13
    Spherical Harmonics?: false
    Max angular momentum: 1

  ==> Pre-Iterations <==

   -------------------------------------------------------
    Irrep   Nso     Nmo     Nalpha   Nbeta   Ndocc  Nsocc
   -------------------------------------------------------
     A'        11      11       0       0       0       0
     A"         2       2       0       0       0       0
   -------------------------------------------------------
    Total      13      13       5       5       5       0
   -------------------------------------------------------

  ==> Integral Setup <==

  Using in-core PK algorithm.
   Calculation information:
      Number of atoms:                   3
      Number of AO shells:               9
      Number of primitives:             22
      Number of atomic orbitals:        13
      Number of basis functions:        13

      Integral cutoff                 1.00e-12
      Number of threads:                 1

  Performing in-core PK
  Using 8372 doubles for integral storage.
  We computed 1035 shell quartets total.
  Whereas there are 1035 unique shell quartets.

  ==> DiskJK: Disk-Based J/K Matrices <==

    J tasked:                  Yes
    K tasked:                  Yes
    wK tasked:                  No
    Memory [MiB]:              375
    Schwarz Cutoff:          1E-12

    OpenMP threads:              1

  Minimum eigenvalue in the overlap matrix is 6.5259494860E-02.
  Using Symmetric Orthogonalization.

  SCF Guess: Superposition of Atomic Densities via on-the-fly atomic UHF.

  ==> Iterations <==

                        Total Energy        Delta E     RMS |[F,P]|

   @RHF iter SAD:   -75.55260488444753   -7.55526e+01   0.00000e+00 
   @RHF iter   1:   -75.91057720749762   -3.57972e-01   3.63143e-02 DIIS
   @RHF iter   2:   -75.96393971738989   -5.33625e-02   2.03144e-02 DIIS
   @RHF iter   3:   -75.98166036587932   -1.77206e-02   1.68862e-03 DIIS
   @RHF iter   4:   -75.98195642630118   -2.96060e-04   2.84418e-04 DIIS
   @RHF iter   5:   -75.98196650217714   -1.00759e-05   4.65828e-05 DIIS
   @RHF iter   6:   -75.98196688566807   -3.83491e-07   9.14331e-06 DIIS
   @RHF iter   7:   -75.98196690105281   -1.53847e-08   1.63317e-06 DIIS
   @RHF iter   8:   -75.98196690150191   -4.49091e-10   2.62757e-07 DIIS
   @RHF iter   9:   -75.98196690150944   -7.53175e-12   2.71093e-08 DIIS
   @RHF iter  10:   -75.98196690150957   -1.27898e-13   3.52770e-09 DIIS
  Energy and wave function converged.


  ==> Post-Iterations <==

    Orbital Energies [Eh]
    ---------------------

    Doubly Occupied:                                                      

       1Ap   -20.551489     2Ap    -1.364511     3Ap    -0.733765  
       4Ap    -0.553369     1App   -0.500271  

    Virtual:                                                              

       5Ap     0.209710     6Ap     0.306940     7Ap     1.092347  
       2App    1.166395     8Ap     1.195642     9Ap     1.210831  
      10Ap     1.399071    11Ap     1.681614  

    Final Occupation by Irrep:
             Ap   App 
    DOCC [     4,    1 ]

  @RHF Final Energy:   -75.98196690150957

   => Energetics <=

    Nuclear Repulsion Energy =              9.4291615638399868
    One-Electron Energy =                -123.4154459195440552
    Two-Electron Energy =                  38.0043174541945206
    Total Energy =                        -75.9819669015095513

Computation Completed


Properties will be evaluated at   0.000000,   0.000000,   0.000000 [a0]

Properties computed using the SCF density matrix

  Nuclear Dipole Moment: [e a0]
     X:    -0.7039      Y:    -0.5483      Z:     0.0000

  Electronic Dipole Moment: [e a0]
     X:    -0.0987      Y:    -0.0354      Z:     0.0000

  Dipole Moment: [e a0]
     X:    -0.8026      Y:    -0.5837      Z:     0.0000     Total:     0.9924

  Dipole Moment: [D]
     X:    -2.0400      Y:    -1.4837      Z:     0.0000     Total:     2.5225


*** tstop() called on adabbott at Fri Jul 19 17:52:24 2019
Module time:
	user time   =       0.32 seconds =       0.01 minutes
	system time =       0.00 seconds =       0.00 minutes
	total time  =          1 seconds =       0.02 minutes
Total time:
	user time   =       0.32 seconds =       0.01 minutes
	system time =       0.00 seconds =       0.00 minutes
	total time  =          1 seconds =       0.02 minutes

*** tstart() called on adabbott
*** at Fri Jul 19 17:52:24 2019


         ------------------------------------------------------------
                                   SCF GRAD                          
                          Rob Parrish, Justin Turney,                
                       Andy Simmonett, and Alex Sokolov              
         ------------------------------------------------------------

  ==> Geometry <==

    Molecular point group: cs
    Full point group: Cs

    Geometry (in Angstrom), charge = 0, multiplicity = 1:

       Center              X                  Y                   Z               Mass       
    ------------   -----------------  -----------------  -----------------  -----------------
         H            0.047324511263    -0.929799191394     0.000000000000     1.007825032230
         H           -0.798398847437     0.344685604306     0.000000000000     1.007825032230
         O            0.047324511263     0.036867475306     0.000000000000    15.994914619570

  Nuclear repulsion =    9.429161563839987

  ==> Basis Set <==

  Basis Set: 6-31G
    Blend: 6-31G
    Number of shells: 9
    Number of basis function: 13
    Number of Cartesian functions: 13
    Spherical Harmonics?: false
    Max angular momentum: 1

  ==> DirectJKGrad: Integral-Direct SCF Gradients <==

    Gradient:                    1
    J tasked:                  Yes
    K tasked:                  Yes
    wK tasked:                  No
    Integrals threads:           1
    Schwarz Cutoff:          0E+00


  -Total Gradient:
     Atom            X                  Y                   Z
    ------   -----------------  -----------------  -----------------
       1       -0.003898501922    -0.017754493962     0.000000000000
       2        0.062325464714    -0.027140625426     0.000000000000
       3       -0.058426962793     0.044895119388     0.000000000000


*** tstop() called on adabbott at Fri Jul 19 17:52:24 2019
Module time:
	user time   =       0.05 seconds =       0.00 minutes
	system time =       0.00 seconds =       0.00 minutes
	total time  =          0 seconds =       0.00 minutes
Total time:
	user time   =       0.37 seconds =       0.01 minutes
	system time =       0.00 seconds =       0.00 minutes
	total time  =          1 seconds =       0.02 minutes

    Psi4 stopped on: Friday, 19 July 2019 05:52PM
    Psi4 wall time for execution: 0:00:00.40

*** Psi4 exiting successfully. Buy a developer a beer!
