
    -----------------------------------------------------------------------
          Psi4: An Open-Source Ab Initio Electronic Structure Package
                               Psi4 1.3.2 release

                         Git: Rev {HEAD} ecbda83 


    R. M. Parrish, L. A. Burns, D. G. A. Smith, A. C. Simmonett,
    A. E. DePrince III, E. G. Hohenstein, U. Bozkaya, A. Yu. Sokolov,
    R. Di Remigio, R. M. Richard, J. F. Gonthier, A. M. James,
    H. R. McAlexander, A. Kumar, M. Saitow, X. Wang, B. P. Pritchard,
    P. Verma, H. F. Schaefer III, K. Patkowski, R. A. King, E. F. Valeev,
    F. A. Evangelista, J. M. Turney, T. D. Crawford, and C. D. Sherrill,
    J. Chem. Theory Comput. 13(7) pp 3185--3197 (2017).
    (doi: 10.1021/acs.jctc.7b00174)


                         Additional Contributions by
    P. Kraus, H. Kruse, M. H. Lechner, M. C. Schieber, R. A. Shaw,
    A. Alenaizan, R. Galvelis, Z. L. Glick, S. Lehtola, and J. P. Misiewicz

    -----------------------------------------------------------------------


    Psi4 started on: Thursday, 22 August 2019 12:15PM

    Process ID: 20529
    Host:       adabbott
    PSIDATADIR: /home/adabbott/anaconda3/envs/autodiff/share/psi4
    Memory:     500.0 MiB
    Threads:    1
    
  ==> Input File <==

--------------------------------------------------------------------------
import psi4
import numpy as np
np.set_printoptions(precision=12, linewidth=400)

basis {
assign one_s_orb
[ one_s_orb ]
cartesian
****
H     0
S   1   1.00
      0.50000000000      1.0000000000
S   1   1.00
      0.40000000000      1.0000000000
S   1   1.00
      0.30000000000      1.0000000000
S   1   1.00
      0.20000000000      1.0000000000
S   1   1.00
      0.10000000000      1.0000000000
S   1   1.00
      0.05000000000      1.0000000000
S   1   1.00
      0.01000000000      1.0000000000
S   1   1.00
      0.00100000000      1.0000000000
****
}

molecule h2o {
symmetry c1
units bohr
0 1
H 0.000000000000 0.000000000000 -0.849220457955
H 0.000000000000 0.000000000000 0.849220457955
}

#set diis false
set scf_type pk
set puream false
set e_convergence 10
set d_convergence 10
set fd_project false
set points 5
e, wfn = hessian('hf', return_wfn=True, dertype='gradient')

print(wfn.energy())
print(np.asarray(wfn.gradient()))
print(np.asarray(wfn.hessian()))

mol = wfn.molecule()
bs = wfn.basisset()
basis = psi4.core.BasisSet.build(mol)
mints = psi4.core.MintsHelper(basis) 
D = np.asarray(wfn.Da())
np.save('D16', D)
np.save('T', np.asarray(mints.ao_kinetic()))
np.save('V', np.asarray(mints.ao_potential()))
np.save('S', np.asarray(mints.ao_overlap()))
np.save('G', np.asarray(mints.ao_eri()))
S = mints.ao_overlap()
S.power(-0.5,1e-15)
np.save('A', S)


--------------------------------------------------------------------------
gradient() will perform analytic gradient computation.

*** tstart() called on adabbott
*** at Thu Aug 22 12:15:45 2019

   => Loading Basis Set <=

    Name: ANONYMOUS48FB3AE5
    Role: ORBITAL
    Keyword: BASIS
    atoms 1-2 entry H          line     5 inputblock one_s_orb 


         ---------------------------------------------------------
                                   SCF
               by Justin Turney, Rob Parrish, Andy Simmonett
                          and Daniel G. A. Smith
                              RHF Reference
                        1 Threads,    500 MiB Core
         ---------------------------------------------------------

  ==> Geometry <==

    Molecular point group: c1
    Full point group: D_inf_h

    Geometry (in Bohr), charge = 0, multiplicity = 1:

       Center              X                  Y                   Z               Mass       
    ------------   -----------------  -----------------  -----------------  -----------------
         H            0.000000000000     0.000000000000    -0.849220457955     1.007825032230
         H            0.000000000000     0.000000000000     0.849220457955     1.007825032230

  Running in c1 symmetry.

  Rotational constants: A = ************  B =     41.41314  C =     41.41314 [cm^-1]
  Rotational constants: A = ************  B = 1241534.81138  C = 1241534.81138 [MHz]
  Nuclear repulsion =    0.588775264792897

  Charge       = 0
  Multiplicity = 1
  Electrons    = 2
  Nalpha       = 1
  Nbeta        = 1

  ==> Algorithm <==

  SCF Algorithm Type is PK.
  DIIS enabled.
  MOM disabled.
  Fractional occupation disabled.
  Guess Type is SAD.
  Energy threshold   = 1.00e-10
  Density threshold  = 1.00e-10
  Integral threshold = 0.00e+00

  ==> Primary Basis <==

  Basis Set: ANONYMOUS48FB3AE5
    Blend: ONE_S_ORB
    Number of shells: 16
    Number of basis function: 16
    Number of Cartesian functions: 16
    Spherical Harmonics?: false
    Max angular momentum: 0

  ==> Pre-Iterations <==

   -------------------------------------------------------
    Irrep   Nso     Nmo     Nalpha   Nbeta   Ndocc  Nsocc
   -------------------------------------------------------
     A         16      16       0       0       0       0
   -------------------------------------------------------
    Total      16      16       1       1       1       0
   -------------------------------------------------------

  ==> Integral Setup <==

  Using in-core PK algorithm.
   Calculation information:
      Number of atoms:                   2
      Number of AO shells:              16
      Number of primitives:             16
      Number of atomic orbitals:        16
      Number of basis functions:        16

      Integral cutoff                 1.00e-12
      Number of threads:                 1

  Performing in-core PK
  Using 18632 doubles for integral storage.
  We computed 9316 shell quartets total.
  Whereas there are 9316 unique shell quartets.

  ==> DiskJK: Disk-Based J/K Matrices <==

    J tasked:                  Yes
    K tasked:                  Yes
    wK tasked:                  No
    Memory [MiB]:              375
    Schwarz Cutoff:          1E-12

    OpenMP threads:              1

  Minimum eigenvalue in the overlap matrix is 5.1105580764E-06.
  Using Symmetric Orthogonalization.

  SCF Guess: Superposition of Atomic Densities via on-the-fly atomic UHF.

  ==> Iterations <==

                        Total Energy        Delta E     RMS |[F,P]|

   @RHF iter SAD:    -0.81404417922622   -8.14044e-01   0.00000e+00 
   @RHF iter   1:    -1.06558402690320   -2.51540e-01   2.80214e-03 DIIS
   @RHF iter   2:    -1.06869704396463   -3.11302e-03   6.31119e-04 DIIS
   @RHF iter   3:    -1.06888591758307   -1.88874e-04   5.12246e-05 DIIS
   @RHF iter   4:    -1.06888692765223   -1.01007e-06   2.26076e-06 DIIS
   @RHF iter   5:    -1.06888692905885   -1.40662e-09   2.42514e-07 DIIS
   @RHF iter   6:    -1.06888692909004   -3.11937e-11   1.04271e-08 DIIS
   @RHF iter   7:    -1.06888692908340    6.64002e-12   2.44109e-10 DIIS
   @RHF iter   8:    -1.06888692908275    6.52811e-13   1.32009e-11 DIIS
  Energy and wave function converged.


  ==> Post-Iterations <==

    Orbital Energies [Eh]
    ---------------------

    Doubly Occupied:                                                      

       1A     -0.537289  

    Virtual:                                                              

       2A      0.001656     3A      0.002470     4A      0.021077  
       5A      0.023463     6A      0.092139     7A      0.117227  
       8A      0.227530     9A      0.387873    10A      0.531574  
      11A      0.899656    12A      1.046725    13A      1.920310  
      14A      2.055196    15A      3.487248    16A      3.488073  

    Final Occupation by Irrep:
              A 
    DOCC [     1 ]

  @RHF Final Energy:    -1.06888692908275

   => Energetics <=

    Nuclear Repulsion Energy =              0.5887752647928965
    One-Electron Energy =                  -2.2407457193343951
    Two-Electron Energy =                   0.5830835254587470
    Total Energy =                         -1.0688869290827516

Computation Completed


Properties will be evaluated at   0.000000,   0.000000,   0.000000 [a0]

Properties computed using the SCF density matrix

  Nuclear Dipole Moment: [e a0]
     X:     0.0000      Y:     0.0000      Z:     0.0000

  Electronic Dipole Moment: [e a0]
     X:     0.0000      Y:     0.0000      Z:    -0.0000

  Dipole Moment: [e a0]
     X:     0.0000      Y:     0.0000      Z:    -0.0000     Total:     0.0000

  Dipole Moment: [D]
     X:     0.0000      Y:     0.0000      Z:    -0.0000     Total:     0.0000


*** tstop() called on adabbott at Thu Aug 22 12:15:46 2019
Module time:
	user time   =       0.21 seconds =       0.00 minutes
	system time =       0.00 seconds =       0.00 minutes
	total time  =          1 seconds =       0.02 minutes
Total time:
	user time   =       0.21 seconds =       0.00 minutes
	system time =       0.00 seconds =       0.00 minutes
	total time  =          1 seconds =       0.02 minutes

*** tstart() called on adabbott
*** at Thu Aug 22 12:15:46 2019


         ------------------------------------------------------------
                                   SCF GRAD                          
                          Rob Parrish, Justin Turney,                
                       Andy Simmonett, and Alex Sokolov              
         ------------------------------------------------------------

  ==> Geometry <==

    Molecular point group: c1
    Full point group: D_inf_h

    Geometry (in Bohr), charge = 0, multiplicity = 1:

       Center              X                  Y                   Z               Mass       
    ------------   -----------------  -----------------  -----------------  -----------------
         H            0.000000000000     0.000000000000    -0.849220457955     1.007825032230
         H            0.000000000000     0.000000000000     0.849220457955     1.007825032230

  Nuclear repulsion =    0.588775264792897

  ==> Basis Set <==

  Basis Set: ANONYMOUS48FB3AE5
    Blend: ONE_S_ORB
    Number of shells: 16
    Number of basis function: 16
    Number of Cartesian functions: 16
    Spherical Harmonics?: false
    Max angular momentum: 0

  ==> DirectJKGrad: Integral-Direct SCF Gradients <==

    Gradient:                    1
    J tasked:                  Yes
    K tasked:                  Yes
    wK tasked:                  No
    Integrals threads:           1
    Schwarz Cutoff:          0E+00


  -Total Gradient:
     Atom            X                  Y                   Z
    ------   -----------------  -----------------  -----------------
       1        0.000000000000     0.000000000000    -0.056095309258
       2        0.000000000000     0.000000000000     0.056095309261


*** tstop() called on adabbott at Thu Aug 22 12:15:46 2019
Module time:
	user time   =       0.03 seconds =       0.00 minutes
	system time =       0.00 seconds =       0.00 minutes
	total time  =          0 seconds =       0.00 minutes
Total time:
	user time   =       0.24 seconds =       0.00 minutes
	system time =       0.00 seconds =       0.00 minutes
	total time  =          1 seconds =       0.02 minutes

  Based on options and gradient (rms=3.24E-02), recommend projecting translations and not projecting rotations.
hessian() will perform frequency computation by finite difference of analytic gradients.

         ----------------------------------------------------------
                                   FINDIF
                     R. A. King and Jonathon Misiewicz
         ---------------------------------------------------------

  Using finite-differences of gradients to determine vibrational frequencies and 
  normal modes.  Resulting frequencies are only valid at stationary points.
    Generating geometries for use with 5-point formula.
    Displacement size will be 5.00e-03.
    Number of atoms is 2.
    Number of irreps is 1.
    Number of SALCs is 3.
    Translations projected? 1. Rotations projected? 0.
    Index of SALCs per irrep:
     1 :  0  1  2 
    Number of SALCs per irrep:
     Irrep 1: 3
    Number of geometries (including reference) is 13.
    Number of displacements per irrep:
      Irrep 1: 12

  //>>>>>>>>>>>>>>>>>>>>>>>>>>>>>>>>>>>//
  //    Loading displacement 1 of 13   //
  //<<<<<<<<<<<<<<<<<<<<<<<<<<<<<<<<<<<//
gradient() will perform analytic gradient computation.

*** tstart() called on adabbott
*** at Thu Aug 22 12:15:46 2019

   => Loading Basis Set <=

    Name: ANONYMOUS48FB3AE5
    Role: ORBITAL
    Keyword: BASIS
    atoms 1-2 entry H          line     5 inputblock one_s_orb 


         ---------------------------------------------------------
                                   SCF
               by Justin Turney, Rob Parrish, Andy Simmonett
                          and Daniel G. A. Smith
                              RHF Reference
                        1 Threads,    500 MiB Core
         ---------------------------------------------------------

  ==> Geometry <==

    Molecular point group: c1
    Full point group: D_inf_h

    Geometry (in Bohr), charge = 0, multiplicity = 1:

       Center              X                  Y                   Z               Mass       
    ------------   -----------------  -----------------  -----------------  -----------------
         H            0.000000000000     0.000000000000    -0.849220457955     1.007825032230
         H            0.000000000000     0.000000000000     0.849220457955     1.007825032230

  Running in c1 symmetry.

  Rotational constants: A = ************  B =     41.41314  C =     41.41314 [cm^-1]
  Rotational constants: A = ************  B = 1241534.81138  C = 1241534.81138 [MHz]
  Nuclear repulsion =    0.588775264792897

  Charge       = 0
  Multiplicity = 1
  Electrons    = 2
  Nalpha       = 1
  Nbeta        = 1

  ==> Algorithm <==

  SCF Algorithm Type is PK.
  DIIS enabled.
  MOM disabled.
  Fractional occupation disabled.
  Guess Type is SAD.
  Energy threshold   = 1.00e-10
  Density threshold  = 1.00e-10
  Integral threshold = 0.00e+00

  ==> Primary Basis <==

  Basis Set: ANONYMOUS48FB3AE5
    Blend: ONE_S_ORB
    Number of shells: 16
    Number of basis function: 16
    Number of Cartesian functions: 16
    Spherical Harmonics?: false
    Max angular momentum: 0

  ==> Pre-Iterations <==

   -------------------------------------------------------
    Irrep   Nso     Nmo     Nalpha   Nbeta   Ndocc  Nsocc
   -------------------------------------------------------
     A         16      16       0       0       0       0
   -------------------------------------------------------
    Total      16      16       1       1       1       0
   -------------------------------------------------------

  ==> Integral Setup <==

  Using in-core PK algorithm.
   Calculation information:
      Number of atoms:                   2
      Number of AO shells:              16
      Number of primitives:             16
      Number of atomic orbitals:        16
      Number of basis functions:        16

      Integral cutoff                 1.00e-12
      Number of threads:                 1

  Performing in-core PK
  Using 18632 doubles for integral storage.
  We computed 9316 shell quartets total.
  Whereas there are 9316 unique shell quartets.

  ==> DiskJK: Disk-Based J/K Matrices <==

    J tasked:                  Yes
    K tasked:                  Yes
    wK tasked:                  No
    Memory [MiB]:              375
    Schwarz Cutoff:          1E-12

    OpenMP threads:              1

  Minimum eigenvalue in the overlap matrix is 5.1105580764E-06.
  Using Symmetric Orthogonalization.

  SCF Guess: Superposition of Atomic Densities via on-the-fly atomic UHF.

  ==> Iterations <==

                        Total Energy        Delta E     RMS |[F,P]|

   @RHF iter SAD:    -0.81404417922971   -8.14044e-01   0.00000e+00 
   @RHF iter   1:    -1.06558402688419   -2.51540e-01   2.80214e-03 DIIS
   @RHF iter   2:    -1.06869704392232   -3.11302e-03   6.31119e-04 DIIS
   @RHF iter   3:    -1.06888591759282   -1.88874e-04   5.12246e-05 DIIS
   @RHF iter   4:    -1.06888692767421   -1.01008e-06   2.26076e-06 DIIS
   @RHF iter   5:    -1.06888692904112   -1.36691e-09   2.42507e-07 DIIS
   @RHF iter   6:    -1.06888692908691   -4.57820e-11   1.04160e-08 DIIS
   @RHF iter   7:    -1.06888692906938    1.75229e-11   2.52067e-10 DIIS
   @RHF iter   8:    -1.06888692908267   -1.32880e-11   4.73415e-11 DIIS
  Energy and wave function converged.


  ==> Post-Iterations <==

    Orbital Energies [Eh]
    ---------------------

    Doubly Occupied:                                                      

       1A     -0.537289  

    Virtual:                                                              

       2A      0.001656     3A      0.002470     4A      0.021077  
       5A      0.023463     6A      0.092139     7A      0.117227  
       8A      0.227530     9A      0.387873    10A      0.531574  
      11A      0.899656    12A      1.046725    13A      1.920310  
      14A      2.055196    15A      3.487248    16A      3.488073  

    Final Occupation by Irrep:
              A 
    DOCC [     1 ]

  @RHF Final Energy:    -1.06888692908267

   => Energetics <=

    Nuclear Repulsion Energy =              0.5887752647928965
    One-Electron Energy =                  -2.2407457193273714
    Two-Electron Energy =                   0.5830835254518032
    Total Energy =                         -1.0688869290826717

Computation Completed


Properties will be evaluated at   0.000000,   0.000000,   0.000000 [a0]

Properties computed using the SCF density matrix

  Nuclear Dipole Moment: [e a0]
     X:     0.0000      Y:     0.0000      Z:     0.0000

  Electronic Dipole Moment: [e a0]
     X:     0.0000      Y:     0.0000      Z:    -0.0000

  Dipole Moment: [e a0]
     X:     0.0000      Y:     0.0000      Z:    -0.0000     Total:     0.0000

  Dipole Moment: [D]
     X:     0.0000      Y:     0.0000      Z:    -0.0000     Total:     0.0000


*** tstop() called on adabbott at Thu Aug 22 12:15:46 2019
Module time:
	user time   =       0.21 seconds =       0.00 minutes
	system time =       0.00 seconds =       0.00 minutes
	total time  =          0 seconds =       0.00 minutes
Total time:
	user time   =       0.46 seconds =       0.01 minutes
	system time =       0.00 seconds =       0.00 minutes
	total time  =          1 seconds =       0.02 minutes

*** tstart() called on adabbott
*** at Thu Aug 22 12:15:46 2019


         ------------------------------------------------------------
                                   SCF GRAD                          
                          Rob Parrish, Justin Turney,                
                       Andy Simmonett, and Alex Sokolov              
         ------------------------------------------------------------

  ==> Geometry <==

    Molecular point group: c1
    Full point group: D_inf_h

    Geometry (in Bohr), charge = 0, multiplicity = 1:

       Center              X                  Y                   Z               Mass       
    ------------   -----------------  -----------------  -----------------  -----------------
         H            0.000000000000     0.000000000000    -0.849220457955     1.007825032230
         H            0.000000000000     0.000000000000     0.849220457955     1.007825032230

  Nuclear repulsion =    0.588775264792897

  ==> Basis Set <==

  Basis Set: ANONYMOUS48FB3AE5
    Blend: ONE_S_ORB
    Number of shells: 16
    Number of basis function: 16
    Number of Cartesian functions: 16
    Spherical Harmonics?: false
    Max angular momentum: 0

  ==> DirectJKGrad: Integral-Direct SCF Gradients <==

    Gradient:                    1
    J tasked:                  Yes
    K tasked:                  Yes
    wK tasked:                  No
    Integrals threads:           1
    Schwarz Cutoff:          0E+00


  -Total Gradient:
     Atom            X                  Y                   Z
    ------   -----------------  -----------------  -----------------
       1        0.000000000000     0.000000000000    -0.056095309269
       2        0.000000000000     0.000000000000     0.056095309269


*** tstop() called on adabbott at Thu Aug 22 12:15:46 2019
Module time:
	user time   =       0.03 seconds =       0.00 minutes
	system time =       0.00 seconds =       0.00 minutes
	total time  =          0 seconds =       0.00 minutes
Total time:
	user time   =       0.49 seconds =       0.01 minutes
	system time =       0.00 seconds =       0.00 minutes
	total time  =          1 seconds =       0.02 minutes

  //>>>>>>>>>>>>>>>>>>>>>>>>>>>>>>>>>>>//
  //    Loading displacement 2 of 13   //
  //<<<<<<<<<<<<<<<<<<<<<<<<<<<<<<<<<<<//
gradient() will perform analytic gradient computation.

*** tstart() called on adabbott
*** at Thu Aug 22 12:15:46 2019

   => Loading Basis Set <=

    Name: ANONYMOUS48FB3AE5
    Role: ORBITAL
    Keyword: BASIS
    atoms 1-2 entry H          line     5 inputblock one_s_orb 


         ---------------------------------------------------------
                                   SCF
               by Justin Turney, Rob Parrish, Andy Simmonett
                          and Daniel G. A. Smith
                              RHF Reference
                        1 Threads,    500 MiB Core
         ---------------------------------------------------------

  ==> Geometry <==

    Molecular point group: c1
    Full point group: D_inf_h

    Geometry (in Bohr), charge = 0, multiplicity = 1:

       Center              X                  Y                   Z               Mass       
    ------------   -----------------  -----------------  -----------------  -----------------
         H           -0.007043563457     0.000000000000    -0.849220457955     1.007825032230
         H            0.007043563457     0.000000000000     0.849220457955     1.007825032230

  Running in c1 symmetry.

  Rotational constants: A = ************  B =     41.41029  C =     41.41029 [cm^-1]
  Rotational constants: A = ************  B = 1241449.40841  C = 1241449.40841 [MHz]
  Nuclear repulsion =    0.588755014042459

  Charge       = 0
  Multiplicity = 1
  Electrons    = 2
  Nalpha       = 1
  Nbeta        = 1

  ==> Algorithm <==

  SCF Algorithm Type is PK.
  DIIS enabled.
  MOM disabled.
  Fractional occupation disabled.
  Guess Type is SAD.
  Energy threshold   = 1.00e-10
  Density threshold  = 1.00e-10
  Integral threshold = 0.00e+00

  ==> Primary Basis <==

  Basis Set: ANONYMOUS48FB3AE5
    Blend: ONE_S_ORB
    Number of shells: 16
    Number of basis function: 16
    Number of Cartesian functions: 16
    Spherical Harmonics?: false
    Max angular momentum: 0

  ==> Pre-Iterations <==

   -------------------------------------------------------
    Irrep   Nso     Nmo     Nalpha   Nbeta   Ndocc  Nsocc
   -------------------------------------------------------
     A         16      16       0       0       0       0
   -------------------------------------------------------
    Total      16      16       1       1       1       0
   -------------------------------------------------------

  ==> Integral Setup <==

  Using in-core PK algorithm.
   Calculation information:
      Number of atoms:                   2
      Number of AO shells:              16
      Number of primitives:             16
      Number of atomic orbitals:        16
      Number of basis functions:        16

      Integral cutoff                 1.00e-12
      Number of threads:                 1

  Performing in-core PK
  Using 18632 doubles for integral storage.
  We computed 9316 shell quartets total.
  Whereas there are 9316 unique shell quartets.

  ==> DiskJK: Disk-Based J/K Matrices <==

    J tasked:                  Yes
    K tasked:                  Yes
    wK tasked:                  No
    Memory [MiB]:              375
    Schwarz Cutoff:          1E-12

    OpenMP threads:              1

  Minimum eigenvalue in the overlap matrix is 5.1106219859E-06.
  Using Symmetric Orthogonalization.

  SCF Guess: Superposition of Atomic Densities via on-the-fly atomic UHF.

  ==> Iterations <==

                        Total Energy        Delta E     RMS |[F,P]|

   @RHF iter SAD:    -0.81404363790361   -8.14044e-01   0.00000e+00 
   @RHF iter   1:    -1.06558082471351   -2.51537e-01   2.80209e-03 DIIS
   @RHF iter   2:    -1.06869376865270   -3.11294e-03   6.31112e-04 DIIS
   @RHF iter   3:    -1.06888264035308   -1.88872e-04   5.12234e-05 DIIS
   @RHF iter   4:    -1.06888365035750   -1.01000e-06   2.26073e-06 DIIS
   @RHF iter   5:    -1.06888365175685   -1.39935e-09   2.42513e-07 DIIS
   @RHF iter   6:    -1.06888365180778   -5.09228e-11   1.04243e-08 DIIS
   @RHF iter   7:    -1.06888365178983    1.79501e-11   2.52684e-10 DIIS
   @RHF iter   8:    -1.06888365178080    9.02922e-12   2.78923e-11 DIIS
  Energy and wave function converged.


  ==> Post-Iterations <==

    Orbital Energies [Eh]
    ---------------------

    Doubly Occupied:                                                      

       1A     -0.537282  

    Virtual:                                                              

       2A      0.001656     3A      0.002470     4A      0.021077  
       5A      0.023463     6A      0.092137     7A      0.117227  
       8A      0.227525     9A      0.387875    10A      0.531568  
      11A      0.899660    12A      1.046717    13A      1.920321  
      14A      2.055184    15A      3.487255    16A      3.488064  

    Final Occupation by Irrep:
              A 
    DOCC [     1 ]

  @RHF Final Energy:    -1.06888365178080

   => Energetics <=

    Nuclear Repulsion Energy =              0.5887550140424586
    One-Electron Energy =                  -2.2407133475140597
    Two-Electron Energy =                   0.5830746816908050
    Total Energy =                         -1.0688836517807960

Computation Completed


Properties will be evaluated at   0.000000,   0.000000,   0.000000 [a0]

Properties computed using the SCF density matrix

  Nuclear Dipole Moment: [e a0]
     X:     0.0000      Y:     0.0000      Z:     0.0000

  Electronic Dipole Moment: [e a0]
     X:    -0.0000      Y:     0.0000      Z:    -0.0000

  Dipole Moment: [e a0]
     X:    -0.0000      Y:     0.0000      Z:    -0.0000     Total:     0.0000

  Dipole Moment: [D]
     X:    -0.0000      Y:     0.0000      Z:    -0.0000     Total:     0.0000


*** tstop() called on adabbott at Thu Aug 22 12:15:46 2019
Module time:
	user time   =       0.19 seconds =       0.00 minutes
	system time =       0.00 seconds =       0.00 minutes
	total time  =          0 seconds =       0.00 minutes
Total time:
	user time   =       0.69 seconds =       0.01 minutes
	system time =       0.00 seconds =       0.00 minutes
	total time  =          1 seconds =       0.02 minutes

*** tstart() called on adabbott
*** at Thu Aug 22 12:15:46 2019


         ------------------------------------------------------------
                                   SCF GRAD                          
                          Rob Parrish, Justin Turney,                
                       Andy Simmonett, and Alex Sokolov              
         ------------------------------------------------------------

  ==> Geometry <==

    Molecular point group: c1
    Full point group: D_inf_h

    Geometry (in Bohr), charge = 0, multiplicity = 1:

       Center              X                  Y                   Z               Mass       
    ------------   -----------------  -----------------  -----------------  -----------------
         H           -0.007043563457     0.000000000000    -0.849220457955     1.007825032230
         H            0.007043563457     0.000000000000     0.849220457955     1.007825032230

  Nuclear repulsion =    0.588755014042459

  ==> Basis Set <==

  Basis Set: ANONYMOUS48FB3AE5
    Blend: ONE_S_ORB
    Number of shells: 16
    Number of basis function: 16
    Number of Cartesian functions: 16
    Spherical Harmonics?: false
    Max angular momentum: 0

  ==> DirectJKGrad: Integral-Direct SCF Gradients <==

    Gradient:                    1
    J tasked:                  Yes
    K tasked:                  Yes
    wK tasked:                  No
    Integrals threads:           1
    Schwarz Cutoff:          0E+00


  -Total Gradient:
     Atom            X                  Y                   Z
    ------   -----------------  -----------------  -----------------
       1       -0.000465317001     0.000000000000    -0.056101818257
       2        0.000465317001     0.000000000000     0.056101818249


*** tstop() called on adabbott at Thu Aug 22 12:15:46 2019
Module time:
	user time   =       0.03 seconds =       0.00 minutes
	system time =       0.00 seconds =       0.00 minutes
	total time  =          0 seconds =       0.00 minutes
Total time:
	user time   =       0.73 seconds =       0.01 minutes
	system time =       0.00 seconds =       0.00 minutes
	total time  =          1 seconds =       0.02 minutes

  //>>>>>>>>>>>>>>>>>>>>>>>>>>>>>>>>>>>//
  //    Loading displacement 3 of 13   //
  //<<<<<<<<<<<<<<<<<<<<<<<<<<<<<<<<<<<//
gradient() will perform analytic gradient computation.

*** tstart() called on adabbott
*** at Thu Aug 22 12:15:46 2019

   => Loading Basis Set <=

    Name: ANONYMOUS48FB3AE5
    Role: ORBITAL
    Keyword: BASIS
    atoms 1-2 entry H          line     5 inputblock one_s_orb 


         ---------------------------------------------------------
                                   SCF
               by Justin Turney, Rob Parrish, Andy Simmonett
                          and Daniel G. A. Smith
                              RHF Reference
                        1 Threads,    500 MiB Core
         ---------------------------------------------------------

  ==> Geometry <==

    Molecular point group: c1
    Full point group: D_inf_h

    Geometry (in Bohr), charge = 0, multiplicity = 1:

       Center              X                  Y                   Z               Mass       
    ------------   -----------------  -----------------  -----------------  -----------------
         H           -0.003521781729     0.000000000000    -0.849220457955     1.007825032230
         H            0.003521781729     0.000000000000     0.849220457955     1.007825032230

  Running in c1 symmetry.

  Rotational constants: A = ************  B =     41.41243  C =     41.41243 [cm^-1]
  Rotational constants: A = ************  B = 1241513.45954  C = 1241513.45954 [MHz]
  Nuclear repulsion =    0.588770201909385

  Charge       = 0
  Multiplicity = 1
  Electrons    = 2
  Nalpha       = 1
  Nbeta        = 1

  ==> Algorithm <==

  SCF Algorithm Type is PK.
  DIIS enabled.
  MOM disabled.
  Fractional occupation disabled.
  Guess Type is SAD.
  Energy threshold   = 1.00e-10
  Density threshold  = 1.00e-10
  Integral threshold = 0.00e+00

  ==> Primary Basis <==

  Basis Set: ANONYMOUS48FB3AE5
    Blend: ONE_S_ORB
    Number of shells: 16
    Number of basis function: 16
    Number of Cartesian functions: 16
    Spherical Harmonics?: false
    Max angular momentum: 0

  ==> Pre-Iterations <==

   -------------------------------------------------------
    Irrep   Nso     Nmo     Nalpha   Nbeta   Ndocc  Nsocc
   -------------------------------------------------------
     A         16      16       0       0       0       0
   -------------------------------------------------------
    Total      16      16       1       1       1       0
   -------------------------------------------------------

  ==> Integral Setup <==

  Using in-core PK algorithm.
   Calculation information:
      Number of atoms:                   2
      Number of AO shells:              16
      Number of primitives:             16
      Number of atomic orbitals:        16
      Number of basis functions:        16

      Integral cutoff                 1.00e-12
      Number of threads:                 1

  Performing in-core PK
  Using 18632 doubles for integral storage.
  We computed 9316 shell quartets total.
  Whereas there are 9316 unique shell quartets.

  ==> DiskJK: Disk-Based J/K Matrices <==

    J tasked:                  Yes
    K tasked:                  Yes
    wK tasked:                  No
    Memory [MiB]:              375
    Schwarz Cutoff:          1E-12

    OpenMP threads:              1

  Minimum eigenvalue in the overlap matrix is 5.1105740554E-06.
  Using Symmetric Orthogonalization.

  SCF Guess: Superposition of Atomic Densities via on-the-fly atomic UHF.

  ==> Iterations <==

                        Total Energy        Delta E     RMS |[F,P]|

   @RHF iter SAD:    -0.81404404397162   -8.14044e-01   0.00000e+00 
   @RHF iter   1:    -1.06558322640137   -2.51539e-01   2.80213e-03 DIIS
   @RHF iter   2:    -1.06869622516163   -3.11300e-03   6.31117e-04 DIIS
   @RHF iter   3:    -1.06888509831215   -1.88873e-04   5.12243e-05 DIIS
   @RHF iter   4:    -1.06888610836727   -1.01006e-06   2.26075e-06 DIIS
   @RHF iter   5:    -1.06888610977044   -1.40317e-09   2.42513e-07 DIIS
   @RHF iter   6:    -1.06888610978017   -9.72999e-12   1.04327e-08 DIIS
   @RHF iter   7:    -1.06888610978452   -4.35474e-12   2.34865e-10 DIIS
   @RHF iter   8:    -1.06888610977781    6.71108e-12   3.69131e-11 DIIS
  Energy and wave function converged.


  ==> Post-Iterations <==

    Orbital Energies [Eh]
    ---------------------

    Doubly Occupied:                                                      

       1A     -0.537287  

    Virtual:                                                              

       2A      0.001656     3A      0.002470     4A      0.021077  
       5A      0.023463     6A      0.092138     7A      0.117227  
       8A      0.227529     9A      0.387874    10A      0.531573  
      11A      0.899657    12A      1.046723    13A      1.920312  
      14A      2.055193    15A      3.487250    16A      3.488071  

    Final Occupation by Irrep:
              A 
    DOCC [     1 ]

  @RHF Final Energy:    -1.06888610977781

   => Energetics <=

    Nuclear Repulsion Energy =              0.5887702019093851
    One-Electron Energy =                  -2.2407376261578236
    Two-Electron Energy =                   0.5830813144706291
    Total Energy =                         -1.0688861097778095

Computation Completed


Properties will be evaluated at   0.000000,   0.000000,   0.000000 [a0]

Properties computed using the SCF density matrix

  Nuclear Dipole Moment: [e a0]
     X:     0.0000      Y:     0.0000      Z:     0.0000

  Electronic Dipole Moment: [e a0]
     X:     0.0000      Y:     0.0000      Z:     0.0000

  Dipole Moment: [e a0]
     X:     0.0000      Y:     0.0000      Z:     0.0000     Total:     0.0000

  Dipole Moment: [D]
     X:     0.0000      Y:     0.0000      Z:     0.0000     Total:     0.0000


*** tstop() called on adabbott at Thu Aug 22 12:15:46 2019
Module time:
	user time   =       0.20 seconds =       0.00 minutes
	system time =       0.00 seconds =       0.00 minutes
	total time  =          0 seconds =       0.00 minutes
Total time:
	user time   =       0.93 seconds =       0.02 minutes
	system time =       0.00 seconds =       0.00 minutes
	total time  =          1 seconds =       0.02 minutes

*** tstart() called on adabbott
*** at Thu Aug 22 12:15:46 2019


         ------------------------------------------------------------
                                   SCF GRAD                          
                          Rob Parrish, Justin Turney,                
                       Andy Simmonett, and Alex Sokolov              
         ------------------------------------------------------------

  ==> Geometry <==

    Molecular point group: c1
    Full point group: D_inf_h

    Geometry (in Bohr), charge = 0, multiplicity = 1:

       Center              X                  Y                   Z               Mass       
    ------------   -----------------  -----------------  -----------------  -----------------
         H           -0.003521781729     0.000000000000    -0.849220457955     1.007825032230
         H            0.003521781729     0.000000000000     0.849220457955     1.007825032230

  Nuclear repulsion =    0.588770201909385

  ==> Basis Set <==

  Basis Set: ANONYMOUS48FB3AE5
    Blend: ONE_S_ORB
    Number of shells: 16
    Number of basis function: 16
    Number of Cartesian functions: 16
    Spherical Harmonics?: false
    Max angular momentum: 0

  ==> DirectJKGrad: Integral-Direct SCF Gradients <==

    Gradient:                    1
    J tasked:                  Yes
    K tasked:                  Yes
    wK tasked:                  No
    Integrals threads:           1
    Schwarz Cutoff:          0E+00


  -Total Gradient:
     Atom            X                  Y                   Z
    ------   -----------------  -----------------  -----------------
       1       -0.000232638257     0.000000000000    -0.056096936745
       2        0.000232638257     0.000000000000     0.056096936747


*** tstop() called on adabbott at Thu Aug 22 12:15:46 2019
Module time:
	user time   =       0.03 seconds =       0.00 minutes
	system time =       0.00 seconds =       0.00 minutes
	total time  =          0 seconds =       0.00 minutes
Total time:
	user time   =       0.96 seconds =       0.02 minutes
	system time =       0.00 seconds =       0.00 minutes
	total time  =          1 seconds =       0.02 minutes

  //>>>>>>>>>>>>>>>>>>>>>>>>>>>>>>>>>>>//
  //    Loading displacement 4 of 13   //
  //<<<<<<<<<<<<<<<<<<<<<<<<<<<<<<<<<<<//
gradient() will perform analytic gradient computation.

*** tstart() called on adabbott
*** at Thu Aug 22 12:15:46 2019

   => Loading Basis Set <=

    Name: ANONYMOUS48FB3AE5
    Role: ORBITAL
    Keyword: BASIS
    atoms 1-2 entry H          line     5 inputblock one_s_orb 


         ---------------------------------------------------------
                                   SCF
               by Justin Turney, Rob Parrish, Andy Simmonett
                          and Daniel G. A. Smith
                              RHF Reference
                        1 Threads,    500 MiB Core
         ---------------------------------------------------------

  ==> Geometry <==

    Molecular point group: c1
    Full point group: D_inf_h

    Geometry (in Bohr), charge = 0, multiplicity = 1:

       Center              X                  Y                   Z               Mass       
    ------------   -----------------  -----------------  -----------------  -----------------
         H            0.003521781729     0.000000000000    -0.849220457955     1.007825032230
         H           -0.003521781729     0.000000000000     0.849220457955     1.007825032230

  Running in c1 symmetry.

  Rotational constants: A = ************  B =     41.41243  C =     41.41243 [cm^-1]
  Rotational constants: A = ************  B = 1241513.45954  C = 1241513.45954 [MHz]
  Nuclear repulsion =    0.588770201909385

  Charge       = 0
  Multiplicity = 1
  Electrons    = 2
  Nalpha       = 1
  Nbeta        = 1

  ==> Algorithm <==

  SCF Algorithm Type is PK.
  DIIS enabled.
  MOM disabled.
  Fractional occupation disabled.
  Guess Type is SAD.
  Energy threshold   = 1.00e-10
  Density threshold  = 1.00e-10
  Integral threshold = 0.00e+00

  ==> Primary Basis <==

  Basis Set: ANONYMOUS48FB3AE5
    Blend: ONE_S_ORB
    Number of shells: 16
    Number of basis function: 16
    Number of Cartesian functions: 16
    Spherical Harmonics?: false
    Max angular momentum: 0

  ==> Pre-Iterations <==

   -------------------------------------------------------
    Irrep   Nso     Nmo     Nalpha   Nbeta   Ndocc  Nsocc
   -------------------------------------------------------
     A         16      16       0       0       0       0
   -------------------------------------------------------
    Total      16      16       1       1       1       0
   -------------------------------------------------------

  ==> Integral Setup <==

  Using in-core PK algorithm.
   Calculation information:
      Number of atoms:                   2
      Number of AO shells:              16
      Number of primitives:             16
      Number of atomic orbitals:        16
      Number of basis functions:        16

      Integral cutoff                 1.00e-12
      Number of threads:                 1

  Performing in-core PK
  Using 18632 doubles for integral storage.
  We computed 9316 shell quartets total.
  Whereas there are 9316 unique shell quartets.

  ==> DiskJK: Disk-Based J/K Matrices <==

    J tasked:                  Yes
    K tasked:                  Yes
    wK tasked:                  No
    Memory [MiB]:              375
    Schwarz Cutoff:          1E-12

    OpenMP threads:              1

  Minimum eigenvalue in the overlap matrix is 5.1105740554E-06.
  Using Symmetric Orthogonalization.

  SCF Guess: Superposition of Atomic Densities via on-the-fly atomic UHF.

  ==> Iterations <==

                        Total Energy        Delta E     RMS |[F,P]|

   @RHF iter SAD:    -0.81404404397151   -8.14044e-01   0.00000e+00 
   @RHF iter   1:    -1.06558322639428   -2.51539e-01   2.80213e-03 DIIS
   @RHF iter   2:    -1.06869622515963   -3.11300e-03   6.31117e-04 DIIS
   @RHF iter   3:    -1.06888509830572   -1.88873e-04   5.12243e-05 DIIS
   @RHF iter   4:    -1.06888610836539   -1.01006e-06   2.26075e-06 DIIS
   @RHF iter   5:    -1.06888610977711   -1.41171e-09   2.42515e-07 DIIS
   @RHF iter   6:    -1.06888610979042   -1.33156e-11   1.04341e-08 DIIS
   @RHF iter   7:    -1.06888610980148   -1.10534e-11   2.38393e-10 DIIS
   @RHF iter   8:    -1.06888610979073    1.07425e-11   3.47649e-11 DIIS
  Energy and wave function converged.


  ==> Post-Iterations <==

    Orbital Energies [Eh]
    ---------------------

    Doubly Occupied:                                                      

       1A     -0.537287  

    Virtual:                                                              

       2A      0.001656     3A      0.002470     4A      0.021077  
       5A      0.023463     6A      0.092138     7A      0.117227  
       8A      0.227529     9A      0.387874    10A      0.531573  
      11A      0.899657    12A      1.046723    13A      1.920312  
      14A      2.055193    15A      3.487250    16A      3.488071  

    Final Occupation by Irrep:
              A 
    DOCC [     1 ]

  @RHF Final Energy:    -1.06888610979073

   => Energetics <=

    Nuclear Repulsion Energy =              0.5887702019093851
    One-Electron Energy =                  -2.2407376261656324
    Two-Electron Energy =                   0.5830813144655149
    Total Energy =                         -1.0688861097907325

Computation Completed


Properties will be evaluated at   0.000000,   0.000000,   0.000000 [a0]

Properties computed using the SCF density matrix

  Nuclear Dipole Moment: [e a0]
     X:     0.0000      Y:     0.0000      Z:     0.0000

  Electronic Dipole Moment: [e a0]
     X:     0.0000      Y:     0.0000      Z:    -0.0000

  Dipole Moment: [e a0]
     X:     0.0000      Y:     0.0000      Z:    -0.0000     Total:     0.0000

  Dipole Moment: [D]
     X:     0.0000      Y:     0.0000      Z:    -0.0000     Total:     0.0000


*** tstop() called on adabbott at Thu Aug 22 12:15:47 2019
Module time:
	user time   =       0.20 seconds =       0.00 minutes
	system time =       0.00 seconds =       0.00 minutes
	total time  =          1 seconds =       0.02 minutes
Total time:
	user time   =       1.16 seconds =       0.02 minutes
	system time =       0.00 seconds =       0.00 minutes
	total time  =          2 seconds =       0.03 minutes

*** tstart() called on adabbott
*** at Thu Aug 22 12:15:47 2019


         ------------------------------------------------------------
                                   SCF GRAD                          
                          Rob Parrish, Justin Turney,                
                       Andy Simmonett, and Alex Sokolov              
         ------------------------------------------------------------

  ==> Geometry <==

    Molecular point group: c1
    Full point group: D_inf_h

    Geometry (in Bohr), charge = 0, multiplicity = 1:

       Center              X                  Y                   Z               Mass       
    ------------   -----------------  -----------------  -----------------  -----------------
         H            0.003521781729     0.000000000000    -0.849220457955     1.007825032230
         H           -0.003521781729     0.000000000000     0.849220457955     1.007825032230

  Nuclear repulsion =    0.588770201909385

  ==> Basis Set <==

  Basis Set: ANONYMOUS48FB3AE5
    Blend: ONE_S_ORB
    Number of shells: 16
    Number of basis function: 16
    Number of Cartesian functions: 16
    Spherical Harmonics?: false
    Max angular momentum: 0

  ==> DirectJKGrad: Integral-Direct SCF Gradients <==

    Gradient:                    1
    J tasked:                  Yes
    K tasked:                  Yes
    wK tasked:                  No
    Integrals threads:           1
    Schwarz Cutoff:          0E+00


  -Total Gradient:
     Atom            X                  Y                   Z
    ------   -----------------  -----------------  -----------------
       1        0.000232638257     0.000000000000    -0.056096936734
       2       -0.000232638257     0.000000000000     0.056096936733


*** tstop() called on adabbott at Thu Aug 22 12:15:47 2019
Module time:
	user time   =       0.03 seconds =       0.00 minutes
	system time =       0.00 seconds =       0.00 minutes
	total time  =          0 seconds =       0.00 minutes
Total time:
	user time   =       1.19 seconds =       0.02 minutes
	system time =       0.00 seconds =       0.00 minutes
	total time  =          2 seconds =       0.03 minutes

  //>>>>>>>>>>>>>>>>>>>>>>>>>>>>>>>>>>>//
  //    Loading displacement 5 of 13   //
  //<<<<<<<<<<<<<<<<<<<<<<<<<<<<<<<<<<<//
gradient() will perform analytic gradient computation.

*** tstart() called on adabbott
*** at Thu Aug 22 12:15:47 2019

   => Loading Basis Set <=

    Name: ANONYMOUS48FB3AE5
    Role: ORBITAL
    Keyword: BASIS
    atoms 1-2 entry H          line     5 inputblock one_s_orb 


         ---------------------------------------------------------
                                   SCF
               by Justin Turney, Rob Parrish, Andy Simmonett
                          and Daniel G. A. Smith
                              RHF Reference
                        1 Threads,    500 MiB Core
         ---------------------------------------------------------

  ==> Geometry <==

    Molecular point group: c1
    Full point group: D_inf_h

    Geometry (in Bohr), charge = 0, multiplicity = 1:

       Center              X                  Y                   Z               Mass       
    ------------   -----------------  -----------------  -----------------  -----------------
         H            0.007043563457     0.000000000000    -0.849220457955     1.007825032230
         H           -0.007043563457     0.000000000000     0.849220457955     1.007825032230

  Running in c1 symmetry.

  Rotational constants: A = ************  B =     41.41029  C =     41.41029 [cm^-1]
  Rotational constants: A = ************  B = 1241449.40841  C = 1241449.40841 [MHz]
  Nuclear repulsion =    0.588755014042459

  Charge       = 0
  Multiplicity = 1
  Electrons    = 2
  Nalpha       = 1
  Nbeta        = 1

  ==> Algorithm <==

  SCF Algorithm Type is PK.
  DIIS enabled.
  MOM disabled.
  Fractional occupation disabled.
  Guess Type is SAD.
  Energy threshold   = 1.00e-10
  Density threshold  = 1.00e-10
  Integral threshold = 0.00e+00

  ==> Primary Basis <==

  Basis Set: ANONYMOUS48FB3AE5
    Blend: ONE_S_ORB
    Number of shells: 16
    Number of basis function: 16
    Number of Cartesian functions: 16
    Spherical Harmonics?: false
    Max angular momentum: 0

  ==> Pre-Iterations <==

   -------------------------------------------------------
    Irrep   Nso     Nmo     Nalpha   Nbeta   Ndocc  Nsocc
   -------------------------------------------------------
     A         16      16       0       0       0       0
   -------------------------------------------------------
    Total      16      16       1       1       1       0
   -------------------------------------------------------

  ==> Integral Setup <==

  Using in-core PK algorithm.
   Calculation information:
      Number of atoms:                   2
      Number of AO shells:              16
      Number of primitives:             16
      Number of atomic orbitals:        16
      Number of basis functions:        16

      Integral cutoff                 1.00e-12
      Number of threads:                 1

  Performing in-core PK
  Using 18632 doubles for integral storage.
  We computed 9316 shell quartets total.
  Whereas there are 9316 unique shell quartets.

  ==> DiskJK: Disk-Based J/K Matrices <==

    J tasked:                  Yes
    K tasked:                  Yes
    wK tasked:                  No
    Memory [MiB]:              375
    Schwarz Cutoff:          1E-12

    OpenMP threads:              1

  Minimum eigenvalue in the overlap matrix is 5.1106219859E-06.
  Using Symmetric Orthogonalization.

  SCF Guess: Superposition of Atomic Densities via on-the-fly atomic UHF.

  ==> Iterations <==

                        Total Energy        Delta E     RMS |[F,P]|

   @RHF iter SAD:    -0.81404363790361   -8.14044e-01   0.00000e+00 
   @RHF iter   1:    -1.06558082473155   -2.51537e-01   2.80209e-03 DIIS
   @RHF iter   2:    -1.06869376865304   -3.11294e-03   6.31112e-04 DIIS
   @RHF iter   3:    -1.06888264033638   -1.88872e-04   5.12234e-05 DIIS
   @RHF iter   4:    -1.06888365038074   -1.01004e-06   2.26073e-06 DIIS
   @RHF iter   5:    -1.06888365175488   -1.37414e-09   2.42509e-07 DIIS
   @RHF iter   6:    -1.06888365180242   -4.75389e-11   1.04176e-08 DIIS
   @RHF iter   7:    -1.06888365179311    9.31610e-12   2.52796e-10 DIIS
   @RHF iter   8:    -1.06888365178665    6.45795e-12   2.86646e-11 DIIS
  Energy and wave function converged.


  ==> Post-Iterations <==

    Orbital Energies [Eh]
    ---------------------

    Doubly Occupied:                                                      

       1A     -0.537282  

    Virtual:                                                              

       2A      0.001656     3A      0.002470     4A      0.021077  
       5A      0.023463     6A      0.092137     7A      0.117227  
       8A      0.227525     9A      0.387875    10A      0.531568  
      11A      0.899660    12A      1.046717    13A      1.920321  
      14A      2.055184    15A      3.487255    16A      3.488064  

    Final Occupation by Irrep:
              A 
    DOCC [     1 ]

  @RHF Final Energy:    -1.06888365178665

   => Energetics <=

    Nuclear Repulsion Energy =              0.5887550140424586
    One-Electron Energy =                  -2.2407133475149337
    Two-Electron Energy =                   0.5830746816858268
    Total Energy =                         -1.0688836517866482

Computation Completed


Properties will be evaluated at   0.000000,   0.000000,   0.000000 [a0]

Properties computed using the SCF density matrix

  Nuclear Dipole Moment: [e a0]
     X:     0.0000      Y:     0.0000      Z:     0.0000

  Electronic Dipole Moment: [e a0]
     X:     0.0000      Y:     0.0000      Z:    -0.0000

  Dipole Moment: [e a0]
     X:     0.0000      Y:     0.0000      Z:    -0.0000     Total:     0.0000

  Dipole Moment: [D]
     X:     0.0000      Y:     0.0000      Z:    -0.0000     Total:     0.0000


*** tstop() called on adabbott at Thu Aug 22 12:15:47 2019
Module time:
	user time   =       0.18 seconds =       0.00 minutes
	system time =       0.01 seconds =       0.00 minutes
	total time  =          0 seconds =       0.00 minutes
Total time:
	user time   =       1.38 seconds =       0.02 minutes
	system time =       0.01 seconds =       0.00 minutes
	total time  =          2 seconds =       0.03 minutes

*** tstart() called on adabbott
*** at Thu Aug 22 12:15:47 2019


         ------------------------------------------------------------
                                   SCF GRAD                          
                          Rob Parrish, Justin Turney,                
                       Andy Simmonett, and Alex Sokolov              
         ------------------------------------------------------------

  ==> Geometry <==

    Molecular point group: c1
    Full point group: D_inf_h

    Geometry (in Bohr), charge = 0, multiplicity = 1:

       Center              X                  Y                   Z               Mass       
    ------------   -----------------  -----------------  -----------------  -----------------
         H            0.007043563457     0.000000000000    -0.849220457955     1.007825032230
         H           -0.007043563457     0.000000000000     0.849220457955     1.007825032230

  Nuclear repulsion =    0.588755014042459

  ==> Basis Set <==

  Basis Set: ANONYMOUS48FB3AE5
    Blend: ONE_S_ORB
    Number of shells: 16
    Number of basis function: 16
    Number of Cartesian functions: 16
    Spherical Harmonics?: false
    Max angular momentum: 0

  ==> DirectJKGrad: Integral-Direct SCF Gradients <==

    Gradient:                    1
    J tasked:                  Yes
    K tasked:                  Yes
    wK tasked:                  No
    Integrals threads:           1
    Schwarz Cutoff:          0E+00


  -Total Gradient:
     Atom            X                  Y                   Z
    ------   -----------------  -----------------  -----------------
       1        0.000465317001     0.000000000000    -0.056101818244
       2       -0.000465317001     0.000000000000     0.056101818247


*** tstop() called on adabbott at Thu Aug 22 12:15:47 2019
Module time:
	user time   =       0.03 seconds =       0.00 minutes
	system time =       0.00 seconds =       0.00 minutes
	total time  =          0 seconds =       0.00 minutes
Total time:
	user time   =       1.41 seconds =       0.02 minutes
	system time =       0.01 seconds =       0.00 minutes
	total time  =          2 seconds =       0.03 minutes

  //>>>>>>>>>>>>>>>>>>>>>>>>>>>>>>>>>>>//
  //    Loading displacement 6 of 13   //
  //<<<<<<<<<<<<<<<<<<<<<<<<<<<<<<<<<<<//
gradient() will perform analytic gradient computation.

*** tstart() called on adabbott
*** at Thu Aug 22 12:15:47 2019

   => Loading Basis Set <=

    Name: ANONYMOUS48FB3AE5
    Role: ORBITAL
    Keyword: BASIS
    atoms 1-2 entry H          line     5 inputblock one_s_orb 


         ---------------------------------------------------------
                                   SCF
               by Justin Turney, Rob Parrish, Andy Simmonett
                          and Daniel G. A. Smith
                              RHF Reference
                        1 Threads,    500 MiB Core
         ---------------------------------------------------------

  ==> Geometry <==

    Molecular point group: c1
    Full point group: D_inf_h

    Geometry (in Bohr), charge = 0, multiplicity = 1:

       Center              X                  Y                   Z               Mass       
    ------------   -----------------  -----------------  -----------------  -----------------
         H            0.000000000000    -0.007043563457    -0.849220457955     1.007825032230
         H            0.000000000000     0.007043563457     0.849220457955     1.007825032230

  Running in c1 symmetry.

  Rotational constants: A = ************  B =     41.41029  C =     41.41029 [cm^-1]
  Rotational constants: A = ************  B = 1241449.40841  C = 1241449.40841 [MHz]
  Nuclear repulsion =    0.588755014042459

  Charge       = 0
  Multiplicity = 1
  Electrons    = 2
  Nalpha       = 1
  Nbeta        = 1

  ==> Algorithm <==

  SCF Algorithm Type is PK.
  DIIS enabled.
  MOM disabled.
  Fractional occupation disabled.
  Guess Type is SAD.
  Energy threshold   = 1.00e-10
  Density threshold  = 1.00e-10
  Integral threshold = 0.00e+00

  ==> Primary Basis <==

  Basis Set: ANONYMOUS48FB3AE5
    Blend: ONE_S_ORB
    Number of shells: 16
    Number of basis function: 16
    Number of Cartesian functions: 16
    Spherical Harmonics?: false
    Max angular momentum: 0

  ==> Pre-Iterations <==

   -------------------------------------------------------
    Irrep   Nso     Nmo     Nalpha   Nbeta   Ndocc  Nsocc
   -------------------------------------------------------
     A         16      16       0       0       0       0
   -------------------------------------------------------
    Total      16      16       1       1       1       0
   -------------------------------------------------------

  ==> Integral Setup <==

  Using in-core PK algorithm.
   Calculation information:
      Number of atoms:                   2
      Number of AO shells:              16
      Number of primitives:             16
      Number of atomic orbitals:        16
      Number of basis functions:        16

      Integral cutoff                 1.00e-12
      Number of threads:                 1

  Performing in-core PK
  Using 18632 doubles for integral storage.
  We computed 9316 shell quartets total.
  Whereas there are 9316 unique shell quartets.

  ==> DiskJK: Disk-Based J/K Matrices <==

    J tasked:                  Yes
    K tasked:                  Yes
    wK tasked:                  No
    Memory [MiB]:              375
    Schwarz Cutoff:          1E-12

    OpenMP threads:              1

  Minimum eigenvalue in the overlap matrix is 5.1106219859E-06.
  Using Symmetric Orthogonalization.

  SCF Guess: Superposition of Atomic Densities via on-the-fly atomic UHF.

  ==> Iterations <==

                        Total Energy        Delta E     RMS |[F,P]|

   @RHF iter SAD:    -0.81404363790246   -8.14044e-01   0.00000e+00 
   @RHF iter   1:    -1.06558082473591   -2.51537e-01   2.80209e-03 DIIS
   @RHF iter   2:    -1.06869376867947   -3.11294e-03   6.31112e-04 DIIS
   @RHF iter   3:    -1.06888264033695   -1.88872e-04   5.12234e-05 DIIS
   @RHF iter   4:    -1.06888365035754   -1.01002e-06   2.26073e-06 DIIS
   @RHF iter   5:    -1.06888365178004   -1.42250e-09   2.42517e-07 DIIS
   @RHF iter   6:    -1.06888365181334   -3.33014e-11   1.04321e-08 DIIS
   @RHF iter   7:    -1.06888365178607    2.72760e-11   2.45298e-10 DIIS
   @RHF iter   8:    -1.06888365178069    5.37437e-12   2.04697e-11 DIIS
  Energy and wave function converged.


  ==> Post-Iterations <==

    Orbital Energies [Eh]
    ---------------------

    Doubly Occupied:                                                      

       1A     -0.537282  

    Virtual:                                                              

       2A      0.001656     3A      0.002470     4A      0.021077  
       5A      0.023463     6A      0.092137     7A      0.117227  
       8A      0.227525     9A      0.387875    10A      0.531568  
      11A      0.899660    12A      1.046717    13A      1.920321  
      14A      2.055184    15A      3.487255    16A      3.488064  

    Final Occupation by Irrep:
              A 
    DOCC [     1 ]

  @RHF Final Energy:    -1.06888365178069

   => Energetics <=

    Nuclear Repulsion Energy =              0.5887550140424586
    One-Electron Energy =                  -2.2407133475105816
    Two-Electron Energy =                   0.5830746816874308
    Total Energy =                         -1.0688836517806921

Computation Completed


Properties will be evaluated at   0.000000,   0.000000,   0.000000 [a0]

Properties computed using the SCF density matrix

  Nuclear Dipole Moment: [e a0]
     X:     0.0000      Y:     0.0000      Z:     0.0000

  Electronic Dipole Moment: [e a0]
     X:     0.0000      Y:     0.0000      Z:     0.0000

  Dipole Moment: [e a0]
     X:     0.0000      Y:     0.0000      Z:     0.0000     Total:     0.0000

  Dipole Moment: [D]
     X:     0.0000      Y:     0.0000      Z:     0.0000     Total:     0.0000


*** tstop() called on adabbott at Thu Aug 22 12:15:47 2019
Module time:
	user time   =       0.20 seconds =       0.00 minutes
	system time =       0.00 seconds =       0.00 minutes
	total time  =          0 seconds =       0.00 minutes
Total time:
	user time   =       1.61 seconds =       0.03 minutes
	system time =       0.01 seconds =       0.00 minutes
	total time  =          2 seconds =       0.03 minutes

*** tstart() called on adabbott
*** at Thu Aug 22 12:15:47 2019


         ------------------------------------------------------------
                                   SCF GRAD                          
                          Rob Parrish, Justin Turney,                
                       Andy Simmonett, and Alex Sokolov              
         ------------------------------------------------------------

  ==> Geometry <==

    Molecular point group: c1
    Full point group: D_inf_h

    Geometry (in Bohr), charge = 0, multiplicity = 1:

       Center              X                  Y                   Z               Mass       
    ------------   -----------------  -----------------  -----------------  -----------------
         H            0.000000000000    -0.007043563457    -0.849220457955     1.007825032230
         H            0.000000000000     0.007043563457     0.849220457955     1.007825032230

  Nuclear repulsion =    0.588755014042459

  ==> Basis Set <==

  Basis Set: ANONYMOUS48FB3AE5
    Blend: ONE_S_ORB
    Number of shells: 16
    Number of basis function: 16
    Number of Cartesian functions: 16
    Spherical Harmonics?: false
    Max angular momentum: 0

  ==> DirectJKGrad: Integral-Direct SCF Gradients <==

    Gradient:                    1
    J tasked:                  Yes
    K tasked:                  Yes
    wK tasked:                  No
    Integrals threads:           1
    Schwarz Cutoff:          0E+00


  -Total Gradient:
     Atom            X                  Y                   Z
    ------   -----------------  -----------------  -----------------
       1        0.000000000000    -0.000465317001    -0.056101818263
       2        0.000000000000     0.000465317001     0.056101818258


*** tstop() called on adabbott at Thu Aug 22 12:15:47 2019
Module time:
	user time   =       0.03 seconds =       0.00 minutes
	system time =       0.00 seconds =       0.00 minutes
	total time  =          0 seconds =       0.00 minutes
Total time:
	user time   =       1.64 seconds =       0.03 minutes
	system time =       0.01 seconds =       0.00 minutes
	total time  =          2 seconds =       0.03 minutes

  //>>>>>>>>>>>>>>>>>>>>>>>>>>>>>>>>>>>//
  //    Loading displacement 7 of 13   //
  //<<<<<<<<<<<<<<<<<<<<<<<<<<<<<<<<<<<//
gradient() will perform analytic gradient computation.

*** tstart() called on adabbott
*** at Thu Aug 22 12:15:47 2019

   => Loading Basis Set <=

    Name: ANONYMOUS48FB3AE5
    Role: ORBITAL
    Keyword: BASIS
    atoms 1-2 entry H          line     5 inputblock one_s_orb 


         ---------------------------------------------------------
                                   SCF
               by Justin Turney, Rob Parrish, Andy Simmonett
                          and Daniel G. A. Smith
                              RHF Reference
                        1 Threads,    500 MiB Core
         ---------------------------------------------------------

  ==> Geometry <==

    Molecular point group: c1
    Full point group: D_inf_h

    Geometry (in Bohr), charge = 0, multiplicity = 1:

       Center              X                  Y                   Z               Mass       
    ------------   -----------------  -----------------  -----------------  -----------------
         H            0.000000000000    -0.003521781729    -0.849220457955     1.007825032230
         H            0.000000000000     0.003521781729     0.849220457955     1.007825032230

  Running in c1 symmetry.

  Rotational constants: A = ************  B =     41.41243  C =     41.41243 [cm^-1]
  Rotational constants: A = ************  B = 1241513.45954  C = 1241513.45954 [MHz]
  Nuclear repulsion =    0.588770201909385

  Charge       = 0
  Multiplicity = 1
  Electrons    = 2
  Nalpha       = 1
  Nbeta        = 1

  ==> Algorithm <==

  SCF Algorithm Type is PK.
  DIIS enabled.
  MOM disabled.
  Fractional occupation disabled.
  Guess Type is SAD.
  Energy threshold   = 1.00e-10
  Density threshold  = 1.00e-10
  Integral threshold = 0.00e+00

  ==> Primary Basis <==

  Basis Set: ANONYMOUS48FB3AE5
    Blend: ONE_S_ORB
    Number of shells: 16
    Number of basis function: 16
    Number of Cartesian functions: 16
    Spherical Harmonics?: false
    Max angular momentum: 0

  ==> Pre-Iterations <==

   -------------------------------------------------------
    Irrep   Nso     Nmo     Nalpha   Nbeta   Ndocc  Nsocc
   -------------------------------------------------------
     A         16      16       0       0       0       0
   -------------------------------------------------------
    Total      16      16       1       1       1       0
   -------------------------------------------------------

  ==> Integral Setup <==

  Using in-core PK algorithm.
   Calculation information:
      Number of atoms:                   2
      Number of AO shells:              16
      Number of primitives:             16
      Number of atomic orbitals:        16
      Number of basis functions:        16

      Integral cutoff                 1.00e-12
      Number of threads:                 1

  Performing in-core PK
  Using 18632 doubles for integral storage.
  We computed 9316 shell quartets total.
  Whereas there are 9316 unique shell quartets.

  ==> DiskJK: Disk-Based J/K Matrices <==

    J tasked:                  Yes
    K tasked:                  Yes
    wK tasked:                  No
    Memory [MiB]:              375
    Schwarz Cutoff:          1E-12

    OpenMP threads:              1

  Minimum eigenvalue in the overlap matrix is 5.1105740554E-06.
  Using Symmetric Orthogonalization.

  SCF Guess: Superposition of Atomic Densities via on-the-fly atomic UHF.

  ==> Iterations <==

                        Total Energy        Delta E     RMS |[F,P]|

   @RHF iter SAD:    -0.81404404397352   -8.14044e-01   0.00000e+00 
   @RHF iter   1:    -1.06558322640104   -2.51539e-01   2.80213e-03 DIIS
   @RHF iter   2:    -1.06869622514456   -3.11300e-03   6.31117e-04 DIIS
   @RHF iter   3:    -1.06888509831684   -1.88873e-04   5.12243e-05 DIIS
   @RHF iter   4:    -1.06888610836700   -1.01005e-06   2.26075e-06 DIIS
   @RHF iter   5:    -1.06888610976148   -1.39447e-09   2.42513e-07 DIIS
   @RHF iter   6:    -1.06888610979122   -2.97460e-11   1.04272e-08 DIIS
   @RHF iter   7:    -1.06888610980909   -1.78675e-11   2.45674e-10 DIIS
   @RHF iter   8:    -1.06888610978333    2.57625e-11   5.10936e-11 DIIS
  Energy and wave function converged.


  ==> Post-Iterations <==

    Orbital Energies [Eh]
    ---------------------

    Doubly Occupied:                                                      

       1A     -0.537287  

    Virtual:                                                              

       2A      0.001656     3A      0.002470     4A      0.021077  
       5A      0.023463     6A      0.092138     7A      0.117227  
       8A      0.227529     9A      0.387874    10A      0.531573  
      11A      0.899657    12A      1.046723    13A      1.920312  
      14A      2.055193    15A      3.487250    16A      3.488071  

    Final Occupation by Irrep:
              A 
    DOCC [     1 ]

  @RHF Final Energy:    -1.06888610978333

   => Energetics <=

    Nuclear Repulsion Energy =              0.5887702019093851
    One-Electron Energy =                  -2.2407376261706169
    Two-Electron Energy =                   0.5830813144779050
    Total Energy =                         -1.0688861097833269

Computation Completed


Properties will be evaluated at   0.000000,   0.000000,   0.000000 [a0]

Properties computed using the SCF density matrix

  Nuclear Dipole Moment: [e a0]
     X:     0.0000      Y:     0.0000      Z:     0.0000

  Electronic Dipole Moment: [e a0]
     X:     0.0000      Y:     0.0000      Z:     0.0000

  Dipole Moment: [e a0]
     X:     0.0000      Y:     0.0000      Z:     0.0000     Total:     0.0000

  Dipole Moment: [D]
     X:     0.0000      Y:     0.0000      Z:     0.0000     Total:     0.0000


*** tstop() called on adabbott at Thu Aug 22 12:15:47 2019
Module time:
	user time   =       0.19 seconds =       0.00 minutes
	system time =       0.00 seconds =       0.00 minutes
	total time  =          0 seconds =       0.00 minutes
Total time:
	user time   =       1.83 seconds =       0.03 minutes
	system time =       0.01 seconds =       0.00 minutes
	total time  =          2 seconds =       0.03 minutes

*** tstart() called on adabbott
*** at Thu Aug 22 12:15:47 2019


         ------------------------------------------------------------
                                   SCF GRAD                          
                          Rob Parrish, Justin Turney,                
                       Andy Simmonett, and Alex Sokolov              
         ------------------------------------------------------------

  ==> Geometry <==

    Molecular point group: c1
    Full point group: D_inf_h

    Geometry (in Bohr), charge = 0, multiplicity = 1:

       Center              X                  Y                   Z               Mass       
    ------------   -----------------  -----------------  -----------------  -----------------
         H            0.000000000000    -0.003521781729    -0.849220457955     1.007825032230
         H            0.000000000000     0.003521781729     0.849220457955     1.007825032230

  Nuclear repulsion =    0.588770201909385

  ==> Basis Set <==

  Basis Set: ANONYMOUS48FB3AE5
    Blend: ONE_S_ORB
    Number of shells: 16
    Number of basis function: 16
    Number of Cartesian functions: 16
    Spherical Harmonics?: false
    Max angular momentum: 0

  ==> DirectJKGrad: Integral-Direct SCF Gradients <==

    Gradient:                    1
    J tasked:                  Yes
    K tasked:                  Yes
    wK tasked:                  No
    Integrals threads:           1
    Schwarz Cutoff:          0E+00


  -Total Gradient:
     Atom            X                  Y                   Z
    ------   -----------------  -----------------  -----------------
       1        0.000000000000    -0.000232638257    -0.056096936743
       2        0.000000000000     0.000232638257     0.056096936738


*** tstop() called on adabbott at Thu Aug 22 12:15:47 2019
Module time:
	user time   =       0.03 seconds =       0.00 minutes
	system time =       0.00 seconds =       0.00 minutes
	total time  =          0 seconds =       0.00 minutes
Total time:
	user time   =       1.86 seconds =       0.03 minutes
	system time =       0.01 seconds =       0.00 minutes
	total time  =          2 seconds =       0.03 minutes

  //>>>>>>>>>>>>>>>>>>>>>>>>>>>>>>>>>>>//
  //    Loading displacement 8 of 13   //
  //<<<<<<<<<<<<<<<<<<<<<<<<<<<<<<<<<<<//
gradient() will perform analytic gradient computation.

*** tstart() called on adabbott
*** at Thu Aug 22 12:15:47 2019

   => Loading Basis Set <=

    Name: ANONYMOUS48FB3AE5
    Role: ORBITAL
    Keyword: BASIS
    atoms 1-2 entry H          line     5 inputblock one_s_orb 


         ---------------------------------------------------------
                                   SCF
               by Justin Turney, Rob Parrish, Andy Simmonett
                          and Daniel G. A. Smith
                              RHF Reference
                        1 Threads,    500 MiB Core
         ---------------------------------------------------------

  ==> Geometry <==

    Molecular point group: c1
    Full point group: D_inf_h

    Geometry (in Bohr), charge = 0, multiplicity = 1:

       Center              X                  Y                   Z               Mass       
    ------------   -----------------  -----------------  -----------------  -----------------
         H            0.000000000000     0.003521781729    -0.849220457955     1.007825032230
         H            0.000000000000    -0.003521781729     0.849220457955     1.007825032230

  Running in c1 symmetry.

  Rotational constants: A = ************  B =     41.41243  C =     41.41243 [cm^-1]
  Rotational constants: A = ************  B = 1241513.45954  C = 1241513.45954 [MHz]
  Nuclear repulsion =    0.588770201909385

  Charge       = 0
  Multiplicity = 1
  Electrons    = 2
  Nalpha       = 1
  Nbeta        = 1

  ==> Algorithm <==

  SCF Algorithm Type is PK.
  DIIS enabled.
  MOM disabled.
  Fractional occupation disabled.
  Guess Type is SAD.
  Energy threshold   = 1.00e-10
  Density threshold  = 1.00e-10
  Integral threshold = 0.00e+00

  ==> Primary Basis <==

  Basis Set: ANONYMOUS48FB3AE5
    Blend: ONE_S_ORB
    Number of shells: 16
    Number of basis function: 16
    Number of Cartesian functions: 16
    Spherical Harmonics?: false
    Max angular momentum: 0

  ==> Pre-Iterations <==

   -------------------------------------------------------
    Irrep   Nso     Nmo     Nalpha   Nbeta   Ndocc  Nsocc
   -------------------------------------------------------
     A         16      16       0       0       0       0
   -------------------------------------------------------
    Total      16      16       1       1       1       0
   -------------------------------------------------------

  ==> Integral Setup <==

  Using in-core PK algorithm.
   Calculation information:
      Number of atoms:                   2
      Number of AO shells:              16
      Number of primitives:             16
      Number of atomic orbitals:        16
      Number of basis functions:        16

      Integral cutoff                 1.00e-12
      Number of threads:                 1

  Performing in-core PK
  Using 18632 doubles for integral storage.
  We computed 9316 shell quartets total.
  Whereas there are 9316 unique shell quartets.

  ==> DiskJK: Disk-Based J/K Matrices <==

    J tasked:                  Yes
    K tasked:                  Yes
    wK tasked:                  No
    Memory [MiB]:              375
    Schwarz Cutoff:          1E-12

    OpenMP threads:              1

  Minimum eigenvalue in the overlap matrix is 5.1105740554E-06.
  Using Symmetric Orthogonalization.

  SCF Guess: Superposition of Atomic Densities via on-the-fly atomic UHF.

  ==> Iterations <==

                        Total Energy        Delta E     RMS |[F,P]|

   @RHF iter SAD:    -0.81404404397145   -8.14044e-01   0.00000e+00 
   @RHF iter   1:    -1.06558322638550   -2.51539e-01   2.80213e-03 DIIS
   @RHF iter   2:    -1.06869622515067   -3.11300e-03   6.31117e-04 DIIS
   @RHF iter   3:    -1.06888509830481   -1.88873e-04   5.12243e-05 DIIS
   @RHF iter   4:    -1.06888610835994   -1.01006e-06   2.26075e-06 DIIS
   @RHF iter   5:    -1.06888610978662   -1.42667e-09   2.42518e-07 DIIS
   @RHF iter   6:    -1.06888610978905   -2.43450e-12   1.04403e-08 DIIS
   @RHF iter   7:    -1.06888610980059   -1.15392e-11   2.33809e-10 DIIS
   @RHF iter   8:    -1.06888610979865    1.93978e-12   2.40989e-11 DIIS
  Energy and wave function converged.


  ==> Post-Iterations <==

    Orbital Energies [Eh]
    ---------------------

    Doubly Occupied:                                                      

       1A     -0.537287  

    Virtual:                                                              

       2A      0.001656     3A      0.002470     4A      0.021077  
       5A      0.023463     6A      0.092138     7A      0.117227  
       8A      0.227529     9A      0.387874    10A      0.531573  
      11A      0.899657    12A      1.046723    13A      1.920312  
      14A      2.055193    15A      3.487250    16A      3.488071  

    Final Occupation by Irrep:
              A 
    DOCC [     1 ]

  @RHF Final Energy:    -1.06888610979865

   => Energetics <=

    Nuclear Repulsion Energy =              0.5887702019093851
    One-Electron Energy =                  -2.2407376261645773
    Two-Electron Energy =                   0.5830813144565425
    Total Energy =                         -1.0688861097986497

Computation Completed


Properties will be evaluated at   0.000000,   0.000000,   0.000000 [a0]

Properties computed using the SCF density matrix

  Nuclear Dipole Moment: [e a0]
     X:     0.0000      Y:     0.0000      Z:     0.0000

  Electronic Dipole Moment: [e a0]
     X:     0.0000      Y:    -0.0000      Z:     0.0000

  Dipole Moment: [e a0]
     X:     0.0000      Y:    -0.0000      Z:     0.0000     Total:     0.0000

  Dipole Moment: [D]
     X:     0.0000      Y:    -0.0000      Z:     0.0000     Total:     0.0000


*** tstop() called on adabbott at Thu Aug 22 12:15:47 2019
Module time:
	user time   =       0.18 seconds =       0.00 minutes
	system time =       0.01 seconds =       0.00 minutes
	total time  =          0 seconds =       0.00 minutes
Total time:
	user time   =       2.05 seconds =       0.03 minutes
	system time =       0.02 seconds =       0.00 minutes
	total time  =          2 seconds =       0.03 minutes

*** tstart() called on adabbott
*** at Thu Aug 22 12:15:47 2019


         ------------------------------------------------------------
                                   SCF GRAD                          
                          Rob Parrish, Justin Turney,                
                       Andy Simmonett, and Alex Sokolov              
         ------------------------------------------------------------

  ==> Geometry <==

    Molecular point group: c1
    Full point group: D_inf_h

    Geometry (in Bohr), charge = 0, multiplicity = 1:

       Center              X                  Y                   Z               Mass       
    ------------   -----------------  -----------------  -----------------  -----------------
         H            0.000000000000     0.003521781729    -0.849220457955     1.007825032230
         H            0.000000000000    -0.003521781729     0.849220457955     1.007825032230

  Nuclear repulsion =    0.588770201909385

  ==> Basis Set <==

  Basis Set: ANONYMOUS48FB3AE5
    Blend: ONE_S_ORB
    Number of shells: 16
    Number of basis function: 16
    Number of Cartesian functions: 16
    Spherical Harmonics?: false
    Max angular momentum: 0

  ==> DirectJKGrad: Integral-Direct SCF Gradients <==

    Gradient:                    1
    J tasked:                  Yes
    K tasked:                  Yes
    wK tasked:                  No
    Integrals threads:           1
    Schwarz Cutoff:          0E+00


  -Total Gradient:
     Atom            X                  Y                   Z
    ------   -----------------  -----------------  -----------------
       1        0.000000000000     0.000232638257    -0.056096936740
       2        0.000000000000    -0.000232638257     0.056096936736


*** tstop() called on adabbott at Thu Aug 22 12:15:47 2019
Module time:
	user time   =       0.04 seconds =       0.00 minutes
	system time =       0.00 seconds =       0.00 minutes
	total time  =          0 seconds =       0.00 minutes
Total time:
	user time   =       2.09 seconds =       0.03 minutes
	system time =       0.02 seconds =       0.00 minutes
	total time  =          2 seconds =       0.03 minutes

  //>>>>>>>>>>>>>>>>>>>>>>>>>>>>>>>>>>>//
  //    Loading displacement 9 of 13   //
  //<<<<<<<<<<<<<<<<<<<<<<<<<<<<<<<<<<<//
gradient() will perform analytic gradient computation.

*** tstart() called on adabbott
*** at Thu Aug 22 12:15:47 2019

   => Loading Basis Set <=

    Name: ANONYMOUS48FB3AE5
    Role: ORBITAL
    Keyword: BASIS
    atoms 1-2 entry H          line     5 inputblock one_s_orb 


         ---------------------------------------------------------
                                   SCF
[...]
	system time =       0.02 seconds =       0.00 minutes
	total time  =          3 seconds =       0.05 minutes

*** tstart() called on adabbott
*** at Thu Aug 22 12:15:48 2019


         ------------------------------------------------------------
                                   SCF GRAD                          
                          Rob Parrish, Justin Turney,                
                       Andy Simmonett, and Alex Sokolov              
         ------------------------------------------------------------

  ==> Geometry <==

    Molecular point group: c1
    Full point group: D_inf_h

    Geometry (in Bohr), charge = 0, multiplicity = 1:

       Center              X                  Y                   Z               Mass       
    ------------   -----------------  -----------------  -----------------  -----------------
         H            0.000000000000     0.000000000000    -0.852742239684     1.007825032230
         H            0.000000000000     0.000000000000     0.852742239684     1.007825032230

  Nuclear repulsion =    0.586343653136672

  ==> Basis Set <==

  Basis Set: ANONYMOUS48FB3AE5
    Blend: ONE_S_ORB
    Number of shells: 16
    Number of basis function: 16
    Number of Cartesian functions: 16
    Spherical Harmonics?: false
    Max angular momentum: 0

  ==> DirectJKGrad: Integral-Direct SCF Gradients <==

    Gradient:                    1
    J tasked:                  Yes
    K tasked:                  Yes
    wK tasked:                  No
    Integrals threads:           1
    Schwarz Cutoff:          0E+00


  -Total Gradient:
     Atom            X                  Y                   Z
    ------   -----------------  -----------------  -----------------
       1        0.000000000000     0.000000000000    -0.057099985790
       2        0.000000000000     0.000000000000     0.057099985793


*** tstop() called on adabbott at Thu Aug 22 12:15:48 2019
Module time:
	user time   =       0.03 seconds =       0.00 minutes
	system time =       0.00 seconds =       0.00 minutes
	total time  =          0 seconds =       0.00 minutes
Total time:
	user time   =       2.77 seconds =       0.05 minutes
	system time =       0.02 seconds =       0.00 minutes
	total time  =          3 seconds =       0.05 minutes

  //>>>>>>>>>>>>>>>>>>>>>>>>>>>>>>>>>>>//
  //   Loading displacement 12 of 13   //
  //<<<<<<<<<<<<<<<<<<<<<<<<<<<<<<<<<<<//
gradient() will perform analytic gradient computation.

*** tstart() called on adabbott
*** at Thu Aug 22 12:15:48 2019

   => Loading Basis Set <=

    Name: ANONYMOUS48FB3AE5
    Role: ORBITAL
    Keyword: BASIS
    atoms 1-2 entry H          line     5 inputblock one_s_orb 


         ---------------------------------------------------------
                                   SCF
               by Justin Turney, Rob Parrish, Andy Simmonett
                          and Daniel G. A. Smith
                              RHF Reference
                        1 Threads,    500 MiB Core
         ---------------------------------------------------------

  ==> Geometry <==

    Molecular point group: c1
    Full point group: D_inf_h

    Geometry (in Bohr), charge = 0, multiplicity = 1:

       Center              X                  Y                   Z               Mass       
    ------------   -----------------  -----------------  -----------------  -----------------
         H            0.000000000000     0.000000000000    -0.845698676226     1.007825032230
         H            0.000000000000     0.000000000000     0.845698676226     1.007825032230

  Running in c1 symmetry.

  Rotational constants: A = ************  B =     41.75878  C =     41.75878 [cm^-1]
  Rotational constants: A = ************  B = 1251896.70235  C = 1251896.70235 [MHz]
  Nuclear repulsion =    0.591227128592686

  Charge       = 0
  Multiplicity = 1
  Electrons    = 2
  Nalpha       = 1
  Nbeta        = 1

  ==> Algorithm <==

  SCF Algorithm Type is PK.
  DIIS enabled.
  MOM disabled.
  Fractional occupation disabled.
  Guess Type is SAD.
  Energy threshold   = 1.00e-10
  Density threshold  = 1.00e-10
  Integral threshold = 0.00e+00

  ==> Primary Basis <==

  Basis Set: ANONYMOUS48FB3AE5
    Blend: ONE_S_ORB
    Number of shells: 16
    Number of basis function: 16
    Number of Cartesian functions: 16
    Spherical Harmonics?: false
    Max angular momentum: 0

  ==> Pre-Iterations <==

   -------------------------------------------------------
    Irrep   Nso     Nmo     Nalpha   Nbeta   Ndocc  Nsocc
   -------------------------------------------------------
     A         16      16       0       0       0       0
   -------------------------------------------------------
    Total      16      16       1       1       1       0
   -------------------------------------------------------

  ==> Integral Setup <==

  Using in-core PK algorithm.
   Calculation information:
      Number of atoms:                   2
      Number of AO shells:              16
      Number of primitives:             16
      Number of atomic orbitals:        16
      Number of basis functions:        16

      Integral cutoff                 1.00e-12
      Number of threads:                 1

  Performing in-core PK
  Using 18632 doubles for integral storage.
  We computed 9316 shell quartets total.
  Whereas there are 9316 unique shell quartets.

  ==> DiskJK: Disk-Based J/K Matrices <==

    J tasked:                  Yes
    K tasked:                  Yes
    wK tasked:                  No
    Memory [MiB]:              375
    Schwarz Cutoff:          1E-12

    OpenMP threads:              1

  Minimum eigenvalue in the overlap matrix is 5.1027419108E-06.
  Using Symmetric Orthogonalization.

  SCF Guess: Superposition of Atomic Densities via on-the-fly atomic UHF.

  ==> Iterations <==

                        Total Energy        Delta E     RMS |[F,P]|

   @RHF iter SAD:    -0.81410421909501   -8.14104e-01   0.00000e+00 
   @RHF iter   1:    -1.06596646555618   -2.51862e-01   2.80792e-03 DIIS
   @RHF iter   2:    -1.06908829922927   -3.12183e-03   6.32017e-04 DIIS
   @RHF iter   3:    -1.06927741104038   -1.89112e-04   5.13687e-05 DIIS
   @RHF iter   4:    -1.06927842425839   -1.01322e-06   2.26358e-06 DIIS
   @RHF iter   5:    -1.06927842563758   -1.37919e-09   2.42518e-07 DIIS
   @RHF iter   6:    -1.06927842566338   -2.58051e-11   1.04450e-08 DIIS
   @RHF iter   7:    -1.06927842565800    5.38236e-12   2.44092e-10 DIIS
   @RHF iter   8:    -1.06927842567093   -1.29283e-11   3.37305e-11 DIIS
  Energy and wave function converged.


  ==> Post-Iterations <==

    Orbital Energies [Eh]
    ---------------------

    Doubly Occupied:                                                      

       1A     -0.538177  

    Virtual:                                                              

       2A      0.001655     3A      0.002470     4A      0.021069  
       5A      0.023477     6A      0.092357     7A      0.117172  
       8A      0.228096     9A      0.387683    10A      0.532308  
      11A      0.899230    12A      1.047658    13A      1.918981  
      14A      2.056561    15A      3.486358    16A      3.489199  

    Final Occupation by Irrep:
              A 
    DOCC [     1 ]

  @RHF Final Energy:    -1.06927842567093

   => Energetics <=

    Nuclear Repulsion Energy =              0.5912271285926864
    One-Electron Energy =                  -2.2446577274711395
    Two-Electron Energy =                   0.5841521732075226
    Total Energy =                         -1.0692784256709305

Computation Completed


Properties will be evaluated at   0.000000,   0.000000,   0.000000 [a0]

Properties computed using the SCF density matrix

  Nuclear Dipole Moment: [e a0]
     X:     0.0000      Y:     0.0000      Z:     0.0000

  Electronic Dipole Moment: [e a0]
     X:     0.0000      Y:     0.0000      Z:    -0.0000

  Dipole Moment: [e a0]
     X:     0.0000      Y:     0.0000      Z:    -0.0000     Total:     0.0000

  Dipole Moment: [D]
     X:     0.0000      Y:     0.0000      Z:    -0.0000     Total:     0.0000


*** tstop() called on adabbott at Thu Aug 22 12:15:48 2019
Module time:
	user time   =       0.19 seconds =       0.00 minutes
	system time =       0.01 seconds =       0.00 minutes
	total time  =          0 seconds =       0.00 minutes
Total time:
	user time   =       2.97 seconds =       0.05 minutes
	system time =       0.03 seconds =       0.00 minutes
	total time  =          3 seconds =       0.05 minutes

*** tstart() called on adabbott
*** at Thu Aug 22 12:15:48 2019


         ------------------------------------------------------------
                                   SCF GRAD                          
                          Rob Parrish, Justin Turney,                
                       Andy Simmonett, and Alex Sokolov              
         ------------------------------------------------------------

  ==> Geometry <==

    Molecular point group: c1
    Full point group: D_inf_h

    Geometry (in Bohr), charge = 0, multiplicity = 1:

       Center              X                  Y                   Z               Mass       
    ------------   -----------------  -----------------  -----------------  -----------------
         H            0.000000000000     0.000000000000    -0.845698676226     1.007825032230
         H            0.000000000000     0.000000000000     0.845698676226     1.007825032230

  Nuclear repulsion =    0.591227128592686

  ==> Basis Set <==

  Basis Set: ANONYMOUS48FB3AE5
    Blend: ONE_S_ORB
    Number of shells: 16
    Number of basis function: 16
    Number of Cartesian functions: 16
    Spherical Harmonics?: false
    Max angular momentum: 0

  ==> DirectJKGrad: Integral-Direct SCF Gradients <==

    Gradient:                    1
    J tasked:                  Yes
    K tasked:                  Yes
    wK tasked:                  No
    Integrals threads:           1
    Schwarz Cutoff:          0E+00


  -Total Gradient:
     Atom            X                  Y                   Z
    ------   -----------------  -----------------  -----------------
       1        0.000000000000     0.000000000000    -0.055064658425
       2        0.000000000000     0.000000000000     0.055064658426


*** tstop() called on adabbott at Thu Aug 22 12:15:48 2019
Module time:
	user time   =       0.03 seconds =       0.00 minutes
	system time =       0.00 seconds =       0.00 minutes
	total time  =          0 seconds =       0.00 minutes
Total time:
	user time   =       3.00 seconds =       0.05 minutes
	system time =       0.03 seconds =       0.00 minutes
	total time  =          3 seconds =       0.05 minutes

  //>>>>>>>>>>>>>>>>>>>>>>>>>>>>>>>>>>>//
  //   Loading displacement 13 of 13   //
  //<<<<<<<<<<<<<<<<<<<<<<<<<<<<<<<<<<<//
gradient() will perform analytic gradient computation.

*** tstart() called on adabbott
*** at Thu Aug 22 12:15:48 2019

   => Loading Basis Set <=

    Name: ANONYMOUS48FB3AE5
    Role: ORBITAL
    Keyword: BASIS
    atoms 1-2 entry H          line     5 inputblock one_s_orb 


         ---------------------------------------------------------
                                   SCF
               by Justin Turney, Rob Parrish, Andy Simmonett
                          and Daniel G. A. Smith
                              RHF Reference
                        1 Threads,    500 MiB Core
         ---------------------------------------------------------

  ==> Geometry <==

    Molecular point group: c1
    Full point group: D_inf_h

    Geometry (in Bohr), charge = 0, multiplicity = 1:

       Center              X                  Y                   Z               Mass       
    ------------   -----------------  -----------------  -----------------  -----------------
         H            0.000000000000     0.000000000000    -0.842176894498     1.007825032230
         H            0.000000000000     0.000000000000     0.842176894498     1.007825032230

  Running in c1 symmetry.

  Rotational constants: A = ************  B =     42.10876  C =     42.10876 [cm^-1]
  Rotational constants: A = ************  B = 1262388.85776  C = 1262388.85776 [MHz]
  Nuclear repulsion =    0.593699498604859

  Charge       = 0
  Multiplicity = 1
  Electrons    = 2
  Nalpha       = 1
  Nbeta        = 1

  ==> Algorithm <==

  SCF Algorithm Type is PK.
  DIIS enabled.
  MOM disabled.
  Fractional occupation disabled.
  Guess Type is SAD.
  Energy threshold   = 1.00e-10
  Density threshold  = 1.00e-10
  Integral threshold = 0.00e+00

  ==> Primary Basis <==

  Basis Set: ANONYMOUS48FB3AE5
    Blend: ONE_S_ORB
    Number of shells: 16
    Number of basis function: 16
    Number of Cartesian functions: 16
    Spherical Harmonics?: false
    Max angular momentum: 0

  ==> Pre-Iterations <==

   -------------------------------------------------------
    Irrep   Nso     Nmo     Nalpha   Nbeta   Ndocc  Nsocc
   -------------------------------------------------------
     A         16      16       0       0       0       0
   -------------------------------------------------------
    Total      16      16       1       1       1       0
   -------------------------------------------------------

  ==> Integral Setup <==

  Using in-core PK algorithm.
   Calculation information:
      Number of atoms:                   2
      Number of AO shells:              16
      Number of primitives:             16
      Number of atomic orbitals:        16
      Number of basis functions:        16

      Integral cutoff                 1.00e-12
      Number of threads:                 1

  Performing in-core PK
  Using 18632 doubles for integral storage.
  We computed 9316 shell quartets total.
  Whereas there are 9316 unique shell quartets.

  ==> DiskJK: Disk-Based J/K Matrices <==

    J tasked:                  Yes
    K tasked:                  Yes
    wK tasked:                  No
    Memory [MiB]:              375
    Schwarz Cutoff:          1E-12

    OpenMP threads:              1

  Minimum eigenvalue in the overlap matrix is 5.0947046419E-06.
  Using Symmetric Orthogonalization.

  SCF Guess: Superposition of Atomic Densities via on-the-fly atomic UHF.

  ==> Iterations <==

                        Total Energy        Delta E     RMS |[F,P]|

   @RHF iter SAD:    -0.81415372103833   -8.14154e-01   0.00000e+00 
   @RHF iter   1:    -1.06634155241402   -2.52188e-01   2.81370e-03 DIIS
   @RHF iter   2:    -1.06947220177416   -3.13065e-03   6.32917e-04 DIIS
   @RHF iter   3:    -1.06966155157253   -1.89350e-04   5.15119e-05 DIIS
   @RHF iter   4:    -1.06966256783372   -1.01626e-06   2.26637e-06 DIIS
   @RHF iter   5:    -1.06966256921839   -1.38466e-09   2.42520e-07 DIIS
   @RHF iter   6:    -1.06966256923416   -1.57696e-11   1.04757e-08 DIIS
   @RHF iter   7:    -1.06966256924362   -9.46621e-12   2.41783e-10 DIIS
   @RHF iter   8:    -1.06966256923773    5.88951e-12   2.62056e-11 DIIS
  Energy and wave function converged.


  ==> Post-Iterations <==

    Orbital Energies [Eh]
    ---------------------

    Doubly Occupied:                                                      

       1A     -0.539068  

    Virtual:                                                              

       2A      0.001655     3A      0.002470     4A      0.021060  
       5A      0.023491     6A      0.092574     7A      0.117118  
       8A      0.228663     9A      0.387493    10A      0.533045  
      11A      0.898803    12A      1.048597    13A      1.917654  
      14A      2.057936    15A      3.485429    16A      3.490345  

    Final Occupation by Irrep:
              A 
    DOCC [     1 ]

  @RHF Final Energy:    -1.06966256923773

   => Energetics <=

    Nuclear Repulsion Energy =              0.5936994986048587
    One-Electron Energy =                  -2.2485875853790915
    Two-Electron Energy =                   0.5852255175364993
    Total Energy =                         -1.0696625692377335

Computation Completed


Properties will be evaluated at   0.000000,   0.000000,   0.000000 [a0]

Properties computed using the SCF density matrix

  Nuclear Dipole Moment: [e a0]
     X:     0.0000      Y:     0.0000      Z:     0.0000

  Electronic Dipole Moment: [e a0]
     X:     0.0000      Y:     0.0000      Z:    -0.0000

  Dipole Moment: [e a0]
     X:     0.0000      Y:     0.0000      Z:    -0.0000     Total:     0.0000

  Dipole Moment: [D]
     X:     0.0000      Y:     0.0000      Z:    -0.0000     Total:     0.0000


*** tstop() called on adabbott at Thu Aug 22 12:15:49 2019
Module time:
	user time   =       0.19 seconds =       0.00 minutes
	system time =       0.01 seconds =       0.00 minutes
	total time  =          1 seconds =       0.02 minutes
Total time:
	user time   =       3.20 seconds =       0.05 minutes
	system time =       0.04 seconds =       0.00 minutes
	total time  =          4 seconds =       0.07 minutes

*** tstart() called on adabbott
*** at Thu Aug 22 12:15:49 2019


         ------------------------------------------------------------
                                   SCF GRAD                          
                          Rob Parrish, Justin Turney,                
                       Andy Simmonett, and Alex Sokolov              
         ------------------------------------------------------------

  ==> Geometry <==

    Molecular point group: c1
    Full point group: D_inf_h

    Geometry (in Bohr), charge = 0, multiplicity = 1:

       Center              X                  Y                   Z               Mass       
    ------------   -----------------  -----------------  -----------------  -----------------
         H            0.000000000000     0.000000000000    -0.842176894498     1.007825032230
         H            0.000000000000     0.000000000000     0.842176894498     1.007825032230

  Nuclear repulsion =    0.593699498604859

  ==> Basis Set <==

  Basis Set: ANONYMOUS48FB3AE5
    Blend: ONE_S_ORB
    Number of shells: 16
    Number of basis function: 16
    Number of Cartesian functions: 16
    Spherical Harmonics?: false
    Max angular momentum: 0

  ==> DirectJKGrad: Integral-Direct SCF Gradients <==

    Gradient:                    1
    J tasked:                  Yes
    K tasked:                  Yes
    wK tasked:                  No
    Integrals threads:           1
    Schwarz Cutoff:          0E+00


  -Total Gradient:
     Atom            X                  Y                   Z
    ------   -----------------  -----------------  -----------------
       1        0.000000000000     0.000000000000    -0.054007327756
       2        0.000000000000     0.000000000000     0.054007327773


*** tstop() called on adabbott at Thu Aug 22 12:15:49 2019
Module time:
	user time   =       0.04 seconds =       0.00 minutes
	system time =       0.00 seconds =       0.00 minutes
	total time  =          0 seconds =       0.00 minutes
Total time:
	user time   =       3.24 seconds =       0.05 minutes
	system time =       0.04 seconds =       0.00 minutes
	total time  =          4 seconds =       0.07 minutes

         ----------------------------------------------------------
                                   FINDIF
                     R. A. King and Jonathon Misiewicz
         ---------------------------------------------------------

  Computing second-derivative from gradients using projected, 
  symmetry-adapted, cartesian coordinates.

  13 gradients passed in, including the reference geometry.
  Generating complete list of displacements from unique ones.


-------------------------------------------------------------
   => Loading Basis Set <=

    Name: ANONYMOUS48FB3AE5
    Role: ORBITAL
    Keyword: None
    atoms 1-2 entry H          line     5 inputblock one_s_orb 


    Psi4 stopped on: Thursday, 22 August 2019 12:15PM
    Psi4 wall time for execution: 0:00:03.36

*** Psi4 exiting successfully. Buy a developer a beer!
