
Host: adabbott

Timers On : Wed Oct 28 16:07:41 2020
Timers Off: Wed Oct 28 16:07:41 2020

Wall Time:        0.72 seconds

                                                       Time (seconds)
Module                                       User      System        Wall        Calls

--------------------------------------------------------------------------------------

**************************************************************************************

Host: adabbott

Timers On : Wed Oct 28 16:08:45 2020
Timers Off: Wed Oct 28 16:08:46 2020

Wall Time:        0.71 seconds

                                                       Time (seconds)
Module                                       User      System        Wall        Calls

--------------------------------------------------------------------------------------

**************************************************************************************

Host: adabbott

Timers On : Wed Oct 28 16:08:52 2020
Timers Off: Wed Oct 28 16:08:53 2020

Wall Time:        0.77 seconds

                                                       Time (seconds)
Module                                       User      System        Wall        Calls

--------------------------------------------------------------------------------------

**************************************************************************************

Host: adabbott

Timers On : Wed Oct 28 16:09:04 2020
Timers Off: Wed Oct 28 16:09:05 2020

Wall Time:        0.77 seconds

                                                       Time (seconds)
Module                                       User      System        Wall        Calls

--------------------------------------------------------------------------------------

**************************************************************************************

Host: adabbott

Timers On : Wed Oct 28 16:10:06 2020
Timers Off: Wed Oct 28 16:10:07 2020

Wall Time:        0.78 seconds

                                                       Time (seconds)
Module                                       User      System        Wall        Calls

--------------------------------------------------------------------------------------

**************************************************************************************

Host: adabbott

Timers On : Wed Oct 28 16:10:40 2020
Timers Off: Wed Oct 28 16:10:41 2020

Wall Time:        0.78 seconds

                                                       Time (seconds)
Module                                       User      System        Wall        Calls

--------------------------------------------------------------------------------------

**************************************************************************************

Host: adabbott

Timers On : Wed Oct 28 16:13:15 2020
Timers Off: Wed Oct 28 16:13:16 2020

Wall Time:        0.83 seconds

                                                       Time (seconds)
Module                                       User      System        Wall        Calls

--------------------------------------------------------------------------------------

**************************************************************************************

Host: adabbott

Timers On : Wed Oct 28 16:14:03 2020
Timers Off: Wed Oct 28 16:14:03 2020

Wall Time:        0.78 seconds

                                                       Time (seconds)
Module                                       User      System        Wall        Calls

--------------------------------------------------------------------------------------

**************************************************************************************

Host: adabbott

Timers On : Wed Oct 28 16:20:02 2020
Timers Off: Wed Oct 28 16:20:03 2020

Wall Time:        0.78 seconds

                                                       Time (seconds)
Module                                       User      System        Wall        Calls

--------------------------------------------------------------------------------------

**************************************************************************************

Host: adabbott

Timers On : Wed Oct 28 16:30:41 2020
Timers Off: Wed Oct 28 16:30:42 2020

Wall Time:        0.77 seconds

                                                       Time (seconds)
Module                                       User      System        Wall        Calls

--------------------------------------------------------------------------------------

**************************************************************************************

Host: adabbott

Timers On : Wed Oct 28 16:41:02 2020
Timers Off: Wed Oct 28 16:41:03 2020

Wall Time:        0.77 seconds

                                                       Time (seconds)
Module                                       User      System        Wall        Calls

--------------------------------------------------------------------------------------

**************************************************************************************

Host: adabbott

Timers On : Wed Oct 28 16:52:15 2020
Timers Off: Wed Oct 28 16:52:16 2020

Wall Time:        0.79 seconds

                                                       Time (seconds)
Module                                       User      System        Wall        Calls

--------------------------------------------------------------------------------------

**************************************************************************************

Host: adabbott

Timers On : Wed Oct 28 16:53:02 2020
Timers Off: Wed Oct 28 16:53:03 2020

Wall Time:        0.78 seconds

                                                       Time (seconds)
Module                                       User      System        Wall        Calls

--------------------------------------------------------------------------------------

**************************************************************************************

Host: adabbott

Timers On : Wed Oct 28 17:01:11 2020
Timers Off: Wed Oct 28 17:01:12 2020

Wall Time:        0.78 seconds

                                                       Time (seconds)
Module                                       User      System        Wall        Calls

--------------------------------------------------------------------------------------

**************************************************************************************

Host: adabbott

Timers On : Wed Oct 28 17:01:26 2020
Timers Off: Wed Oct 28 17:01:27 2020

Wall Time:        0.78 seconds

                                                       Time (seconds)
Module                                       User      System        Wall        Calls

--------------------------------------------------------------------------------------

**************************************************************************************

Host: adabbott

Timers On : Wed Oct 28 17:01:37 2020
Timers Off: Wed Oct 28 17:01:38 2020

Wall Time:        0.78 seconds

                                                       Time (seconds)
Module                                       User      System        Wall        Calls

--------------------------------------------------------------------------------------

**************************************************************************************

Host: adabbott

Timers On : Sun Nov  1 16:01:45 2020
Timers Off: Sun Nov  1 16:01:45 2020

Wall Time:        0.69 seconds

                                                       Time (seconds)
Module                                       User      System        Wall        Calls

--------------------------------------------------------------------------------------

**************************************************************************************

Host: adabbott

Timers On : Sun Nov  1 16:01:58 2020
Timers Off: Sun Nov  1 16:02:16 2020

Wall Time:       18.61 seconds

                                                       Time (seconds)
Module                                       User      System        Wall        Calls

--------------------------------------------------------------------------------------

**************************************************************************************

Host: adabbott

Timers On : Sun Nov  1 16:04:20 2020
Timers Off: Sun Nov  1 16:04:51 2020

Wall Time:       30.45 seconds

                                                       Time (seconds)
Module                                       User      System        Wall        Calls

--------------------------------------------------------------------------------------

**************************************************************************************

Host: adabbott

Timers On : Sun Nov  1 16:05:25 2020
Timers Off: Sun Nov  1 16:05:56 2020

Wall Time:       30.55 seconds

                                                       Time (seconds)
Module                                       User      System        Wall        Calls

--------------------------------------------------------------------------------------

**************************************************************************************

Host: adabbott

Timers On : Sun Nov  1 16:07:22 2020
Timers Off: Sun Nov  1 16:07:52 2020

Wall Time:       30.50 seconds

                                                       Time (seconds)
Module                                       User      System        Wall        Calls

--------------------------------------------------------------------------------------

**************************************************************************************

Host: adabbott

Timers On : Sun Nov  1 16:08:05 2020
Timers Off: Sun Nov  1 16:08:36 2020

Wall Time:       30.37 seconds

                                                       Time (seconds)
Module                                       User      System        Wall        Calls

--------------------------------------------------------------------------------------

**************************************************************************************

Host: adabbott

Timers On : Sun Nov  1 16:13:07 2020
Timers Off: Sun Nov  1 16:13:38 2020

Wall Time:       30.46 seconds

                                                       Time (seconds)
Module                                       User      System        Wall        Calls

--------------------------------------------------------------------------------------

**************************************************************************************

Host: adabbott

Timers On : Sun Nov  1 16:14:23 2020
Timers Off: Sun Nov  1 16:14:24 2020

Wall Time:        0.33 seconds

                                                       Time (seconds)
Module                                       User      System        Wall        Calls

--------------------------------------------------------------------------------------

**************************************************************************************

Host: adabbott

Timers On : Sun Nov  1 16:14:29 2020
Timers Off: Sun Nov  1 16:15:00 2020

Wall Time:       30.47 seconds

                                                       Time (seconds)
Module                                       User      System        Wall        Calls

--------------------------------------------------------------------------------------

**************************************************************************************

Host: adabbott

Timers On : Sun Nov  1 17:00:23 2020
Timers Off: Sun Nov  1 17:00:23 2020

Wall Time:        0.74 seconds

                                                       Time (seconds)
Module                                       User      System        Wall        Calls

--------------------------------------------------------------------------------------

**************************************************************************************

Host: adabbott

Timers On : Sun Nov  1 17:00:46 2020
Timers Off: Sun Nov  1 17:01:17 2020

Wall Time:       30.33 seconds

                                                       Time (seconds)
Module                                       User      System        Wall        Calls

--------------------------------------------------------------------------------------

**************************************************************************************

Host: adabbott

Timers On : Sun Nov  1 17:03:11 2020
Timers Off: Sun Nov  1 17:03:42 2020

Wall Time:       30.44 seconds

                                                       Time (seconds)
Module                                       User      System        Wall        Calls

--------------------------------------------------------------------------------------

**************************************************************************************

Host: adabbott

Timers On : Sun Nov  1 17:09:59 2020
Timers Off: Sun Nov  1 17:10:47 2020

Wall Time:       47.64 seconds

                                                       Time (seconds)
Module                                       User      System        Wall        Calls

--------------------------------------------------------------------------------------

**************************************************************************************

Host: adabbott

Timers On : Sun Nov  1 17:11:21 2020
Timers Off: Sun Nov  1 17:12:12 2020

Wall Time:       51.15 seconds

                                                       Time (seconds)
Module                                       User      System        Wall        Calls

--------------------------------------------------------------------------------------

**************************************************************************************
