
    -----------------------------------------------------------------------
          Psi4: An Open-Source Ab Initio Electronic Structure Package
                               Psi4 1.3.2 release

                         Git: Rev {HEAD} ecbda83 


    R. M. Parrish, L. A. Burns, D. G. A. Smith, A. C. Simmonett,
    A. E. DePrince III, E. G. Hohenstein, U. Bozkaya, A. Yu. Sokolov,
    R. Di Remigio, R. M. Richard, J. F. Gonthier, A. M. James,
    H. R. McAlexander, A. Kumar, M. Saitow, X. Wang, B. P. Pritchard,
    P. Verma, H. F. Schaefer III, K. Patkowski, R. A. King, E. F. Valeev,
    F. A. Evangelista, J. M. Turney, T. D. Crawford, and C. D. Sherrill,
    J. Chem. Theory Comput. 13(7) pp 3185--3197 (2017).
    (doi: 10.1021/acs.jctc.7b00174)


                         Additional Contributions by
    P. Kraus, H. Kruse, M. H. Lechner, M. C. Schieber, R. A. Shaw,
    A. Alenaizan, R. Galvelis, Z. L. Glick, S. Lehtola, and J. P. Misiewicz

    -----------------------------------------------------------------------


    Psi4 started on: Monday, 22 July 2019 01:01PM

    Process ID: 17862
    Host:       adabbott
    PSIDATADIR: /home/adabbott/anaconda3/envs/peslearn/share/psi4
    Memory:     500.0 MiB
    Threads:    1
    
  ==> Input File <==

--------------------------------------------------------------------------
# density fitted hartree fock 
molecule h2o {
0 1
H 0.0000000000 0.0000000000 0.9000000000
H 0.0000000000 0.9396926208 -0.3420201433
O 0.0000000000 0.0000000000 0.0000000000
}

set scf_type pk
set basis 6-31g
gradient('hf')

--------------------------------------------------------------------------
gradient() will perform analytic gradient computation.

*** tstart() called on adabbott
*** at Mon Jul 22 13:01:13 2019

   => Loading Basis Set <=

    Name: 6-31G
    Role: ORBITAL
    Keyword: BASIS
    atoms 1-2 entry H          line    26 file /home/adabbott/anaconda3/envs/peslearn/share/psi4/basis/6-31g.gbs 
    atoms 3   entry O          line   117 file /home/adabbott/anaconda3/envs/peslearn/share/psi4/basis/6-31g.gbs 


         ---------------------------------------------------------
                                   SCF
               by Justin Turney, Rob Parrish, Andy Simmonett
                          and Daniel G. A. Smith
                              RHF Reference
                        1 Threads,    500 MiB Core
         ---------------------------------------------------------

  ==> Geometry <==

    Molecular point group: cs
    Full point group: Cs

    Geometry (in Angstrom), charge = 0, multiplicity = 1:

       Center              X                  Y                   Z               Mass       
    ------------   -----------------  -----------------  -----------------  -----------------
         H            0.052582790293    -0.868776877520     0.000000000000     1.007825032230
         H           -0.887109830507     0.373243265780     0.000000000000     1.007825032230
         O            0.052582790293     0.031223122480     0.000000000000    15.994914619570

  Running in cs symmetry.

  Rotational constants: A =     32.24123  B =     13.66155  C =      9.59561 [cm^-1]
  Rotational constants: A = 966567.84452  B = 409562.82024  C = 287669.08731 [MHz]
  Nuclear repulsion =    9.276987667671211

  Charge       = 0
  Multiplicity = 1
  Electrons    = 10
  Nalpha       = 5
  Nbeta        = 5

  ==> Algorithm <==

  SCF Algorithm Type is PK.
  DIIS enabled.
  MOM disabled.
  Fractional occupation disabled.
  Guess Type is SAD.
  Energy threshold   = 1.00e-08
  Density threshold  = 1.00e-08
  Integral threshold = 0.00e+00

  ==> Primary Basis <==

  Basis Set: 6-31G
    Blend: 6-31G
    Number of shells: 9
    Number of basis function: 13
    Number of Cartesian functions: 13
    Spherical Harmonics?: false
    Max angular momentum: 1

  ==> Pre-Iterations <==

   -------------------------------------------------------
    Irrep   Nso     Nmo     Nalpha   Nbeta   Ndocc  Nsocc
   -------------------------------------------------------
     A'        11      11       0       0       0       0
     A"         2       2       0       0       0       0
   -------------------------------------------------------
    Total      13      13       5       5       5       0
   -------------------------------------------------------

  ==> Integral Setup <==

  Using in-core PK algorithm.
   Calculation information:
      Number of atoms:                   3
      Number of AO shells:               9
      Number of primitives:             22
      Number of atomic orbitals:        13
      Number of basis functions:        13

      Integral cutoff                 1.00e-12
      Number of threads:                 1

  Performing in-core PK
  Using 8372 doubles for integral storage.
  We computed 1035 shell quartets total.
  Whereas there are 1035 unique shell quartets.

  ==> DiskJK: Disk-Based J/K Matrices <==

    J tasked:                  Yes
    K tasked:                  Yes
    wK tasked:                  No
    Memory [MiB]:              375
    Schwarz Cutoff:          1E-12

    OpenMP threads:              1

  Minimum eigenvalue in the overlap matrix is 6.6690520196E-02.
  Using Symmetric Orthogonalization.

  SCF Guess: Superposition of Atomic Densities via on-the-fly atomic UHF.

  ==> Iterations <==

                        Total Energy        Delta E     RMS |[F,P]|

   @RHF iter SAD:   -75.52686725458646   -7.55269e+01   0.00000e+00 
   @RHF iter   1:   -75.90740996436905   -3.80543e-01   3.62863e-02 DIIS
   @RHF iter   2:   -75.96096431068288   -5.35543e-02   2.07758e-02 DIIS
   @RHF iter   3:   -75.97953653310709   -1.85722e-02   1.73032e-03 DIIS
   @RHF iter   4:   -75.97986729551819   -3.30762e-04   3.17094e-04 DIIS
   @RHF iter   5:   -75.97988012166562   -1.28261e-05   5.05911e-05 DIIS
   @RHF iter   6:   -75.97988058457894   -4.62913e-07   1.05433e-05 DIIS
   @RHF iter   7:   -75.97988060550061   -2.09217e-08   1.89687e-06 DIIS
   @RHF iter   8:   -75.97988060612383   -6.23217e-10   3.05622e-07 DIIS
   @RHF iter   9:   -75.97988060613450   -1.06724e-11   3.30562e-08 DIIS
   @RHF iter  10:   -75.97988060613473   -2.27374e-13   4.87817e-09 DIIS
  Energy and wave function converged.


  ==> Post-Iterations <==

    Orbital Energies [Eh]
    ---------------------

    Doubly Occupied:                                                      

       1Ap   -20.554558     2Ap    -1.356837     3Ap    -0.723994  
       4Ap    -0.550629     1App   -0.499270  

    Virtual:                                                              

       5Ap     0.204418     6Ap     0.303240     7Ap     1.073735  
       2App    1.166527     8Ap     1.187603     9Ap     1.210450  
      10Ap     1.396989    11Ap     1.681007  

    Final Occupation by Irrep:
             Ap   App 
    DOCC [     4,    1 ]

  @RHF Final Energy:   -75.97988060613473

   => Energetics <=

    Nuclear Repulsion Energy =              9.2769876676712109
    One-Electron Energy =                -123.1431608612826238
    Two-Electron Energy =                  37.8862925874766887
    Total Energy =                        -75.9798806061347278

Computation Completed


Properties will be evaluated at   0.000000,   0.000000,   0.000000 [a0]

Properties computed using the SCF density matrix

  Nuclear Dipole Moment: [e a0]
     X:    -0.7821      Y:    -0.4644      Z:     0.0000

  Electronic Dipole Moment: [e a0]
     X:    -0.0476      Y:    -0.0854      Z:     0.0000

  Dipole Moment: [e a0]
     X:    -0.8297      Y:    -0.5498      Z:     0.0000     Total:     0.9953

  Dipole Moment: [D]
     X:    -2.1088      Y:    -1.3975      Z:     0.0000     Total:     2.5298


*** tstop() called on adabbott at Mon Jul 22 13:01:14 2019
Module time:
	user time   =       0.30 seconds =       0.01 minutes
	system time =       0.00 seconds =       0.00 minutes
	total time  =          1 seconds =       0.02 minutes
Total time:
	user time   =       0.30 seconds =       0.01 minutes
	system time =       0.00 seconds =       0.00 minutes
	total time  =          1 seconds =       0.02 minutes

*** tstart() called on adabbott
*** at Mon Jul 22 13:01:14 2019


         ------------------------------------------------------------
                                   SCF GRAD                          
                          Rob Parrish, Justin Turney,                
                       Andy Simmonett, and Alex Sokolov              
         ------------------------------------------------------------

  ==> Geometry <==

    Molecular point group: cs
    Full point group: Cs

    Geometry (in Angstrom), charge = 0, multiplicity = 1:

       Center              X                  Y                   Z               Mass       
    ------------   -----------------  -----------------  -----------------  -----------------
         H            0.052582790293    -0.868776877520     0.000000000000     1.007825032230
         H           -0.887109830507     0.373243265780     0.000000000000     1.007825032230
         O            0.052582790293     0.031223122480     0.000000000000    15.994914619570

  Nuclear repulsion =    9.276987667671211

  ==> Basis Set <==

  Basis Set: 6-31G
    Blend: 6-31G
    Number of shells: 9
    Number of basis function: 13
    Number of Cartesian functions: 13
    Spherical Harmonics?: false
    Max angular momentum: 1

  ==> DirectJKGrad: Integral-Direct SCF Gradients <==

    Gradient:                    1
    J tasked:                  Yes
    K tasked:                  Yes
    wK tasked:                  No
    Integrals threads:           1
    Schwarz Cutoff:          0E+00


  -Total Gradient:
     Atom            X                  Y                   Z
    ------   -----------------  -----------------  -----------------
       1       -0.002593682829     0.068386350126     0.000000000000
       2       -0.045263314652     0.013990375183     0.000000000000
       3        0.047856997481    -0.082376725309     0.000000000000


*** tstop() called on adabbott at Mon Jul 22 13:01:14 2019
Module time:
	user time   =       0.03 seconds =       0.00 minutes
	system time =       0.00 seconds =       0.00 minutes
	total time  =          0 seconds =       0.00 minutes
Total time:
	user time   =       0.33 seconds =       0.01 minutes
	system time =       0.00 seconds =       0.00 minutes
	total time  =          1 seconds =       0.02 minutes

    Psi4 stopped on: Monday, 22 July 2019 01:01PM
    Psi4 wall time for execution: 0:00:00.35

*** Psi4 exiting successfully. Buy a developer a beer!
