
    -----------------------------------------------------------------------
          Psi4: An Open-Source Ab Initio Electronic Structure Package
                               Psi4 1.3.2 release

                         Git: Rev {HEAD} ecbda83 


    R. M. Parrish, L. A. Burns, D. G. A. Smith, A. C. Simmonett,
    A. E. DePrince III, E. G. Hohenstein, U. Bozkaya, A. Yu. Sokolov,
    R. Di Remigio, R. M. Richard, J. F. Gonthier, A. M. James,
    H. R. McAlexander, A. Kumar, M. Saitow, X. Wang, B. P. Pritchard,
    P. Verma, H. F. Schaefer III, K. Patkowski, R. A. King, E. F. Valeev,
    F. A. Evangelista, J. M. Turney, T. D. Crawford, and C. D. Sherrill,
    J. Chem. Theory Comput. 13(7) pp 3185--3197 (2017).
    (doi: 10.1021/acs.jctc.7b00174)


                         Additional Contributions by
    P. Kraus, H. Kruse, M. H. Lechner, M. C. Schieber, R. A. Shaw,
    A. Alenaizan, R. Galvelis, Z. L. Glick, S. Lehtola, and J. P. Misiewicz

    -----------------------------------------------------------------------


    Psi4 started on: Monday, 22 July 2019 03:01PM

    Process ID: 25648
    Host:       adabbott
    PSIDATADIR: /home/adabbott/anaconda3/envs/peslearn/share/psi4
    Memory:     500.0 MiB
    Threads:    1
    
  ==> Input File <==

--------------------------------------------------------------------------
# density fitted hartree fock 
molecule h2o {
noreorient
nocom
0 1
H 0.0000000000 0.0000000000 0.9333333333
H 0.0000000000 0.9730448706 -0.2306158707
O 0.0000000000 0.0000000000 0.0000000000
}

set scf_type pk
set basis 6-31g
gradient('hf')

--------------------------------------------------------------------------
gradient() will perform analytic gradient computation.

*** tstart() called on adabbott
*** at Mon Jul 22 15:01:51 2019

   => Loading Basis Set <=

    Name: 6-31G
    Role: ORBITAL
    Keyword: BASIS
    atoms 1-2 entry H          line    26 file /home/adabbott/anaconda3/envs/peslearn/share/psi4/basis/6-31g.gbs 
    atoms 3   entry O          line   117 file /home/adabbott/anaconda3/envs/peslearn/share/psi4/basis/6-31g.gbs 


         ---------------------------------------------------------
                                   SCF
               by Justin Turney, Rob Parrish, Andy Simmonett
                          and Daniel G. A. Smith
                              RHF Reference
                        1 Threads,    500 MiB Core
         ---------------------------------------------------------

  ==> Geometry <==

    Molecular point group: cs
    Full point group: Cs

    Geometry (in Angstrom), charge = 0, multiplicity = 1:

       Center              X                  Y                   Z               Mass       
    ------------   -----------------  -----------------  -----------------  -----------------
         H            0.000000000000     0.000000000000     0.933333333300     1.007825032230
         H            0.000000000000     0.973044870600    -0.230615870700     1.007825032230
         O            0.000000000000     0.000000000000     0.000000000000    15.994914619570

  Running in cs symmetry.

  Rotational constants: A =     23.52984  B =     14.41665  C =      8.93947 [cm^-1]
  Rotational constants: A = 705406.84871  B = 432200.39172  C = 267998.57235 [MHz]
  Nuclear repulsion =    9.118030614052895

  Charge       = 0
  Multiplicity = 1
  Electrons    = 10
  Nalpha       = 5
  Nbeta        = 5

  ==> Algorithm <==

  SCF Algorithm Type is PK.
  DIIS enabled.
  MOM disabled.
  Fractional occupation disabled.
  Guess Type is SAD.
  Energy threshold   = 1.00e-08
  Density threshold  = 1.00e-08
  Integral threshold = 0.00e+00

  ==> Primary Basis <==

  Basis Set: 6-31G
    Blend: 6-31G
    Number of shells: 9
    Number of basis function: 13
    Number of Cartesian functions: 13
    Spherical Harmonics?: false
    Max angular momentum: 1

  ==> Pre-Iterations <==

   -------------------------------------------------------
    Irrep   Nso     Nmo     Nalpha   Nbeta   Ndocc  Nsocc
   -------------------------------------------------------
     A'        11      11       0       0       0       0
     A"         2       2       0       0       0       0
   -------------------------------------------------------
    Total      13      13       5       5       5       0
   -------------------------------------------------------

  ==> Integral Setup <==

  Using in-core PK algorithm.
   Calculation information:
      Number of atoms:                   3
      Number of AO shells:               9
      Number of primitives:             22
      Number of atomic orbitals:        13
      Number of basis functions:        13

      Integral cutoff                 1.00e-12
      Number of threads:                 1

  Performing in-core PK
  Using 8372 doubles for integral storage.
  We computed 1035 shell quartets total.
  Whereas there are 1035 unique shell quartets.

  ==> DiskJK: Disk-Based J/K Matrices <==

    J tasked:                  Yes
    K tasked:                  Yes
    wK tasked:                  No
    Memory [MiB]:              375
    Schwarz Cutoff:          1E-12

    OpenMP threads:              1

  Minimum eigenvalue in the overlap matrix is 6.8127249859E-02.
  Using Symmetric Orthogonalization.

  SCF Guess: Superposition of Atomic Densities via on-the-fly atomic UHF.

  ==> Iterations <==

                        Total Energy        Delta E     RMS |[F,P]|

   @RHF iter SAD:   -75.51100133518524   -7.55110e+01   0.00000e+00 
   @RHF iter   1:   -75.90611017814481   -3.95109e-01   3.63184e-02 DIIS
   @RHF iter   2:   -75.96110622328642   -5.49960e-02   2.13700e-02 DIIS
   @RHF iter   3:   -75.98077173867442   -1.96655e-02   1.75570e-03 DIIS
   @RHF iter   4:   -75.98111535550001   -3.43617e-04   3.29207e-04 DIIS
   @RHF iter   5:   -75.98112783077369   -1.24753e-05   4.63684e-05 DIIS
   @RHF iter   6:   -75.98112817349205   -3.42718e-07   8.32222e-06 DIIS
   @RHF iter   7:   -75.98112818530581   -1.18138e-08   1.70521e-06 DIIS
   @RHF iter   8:   -75.98112818583867   -5.32864e-10   3.29636e-07 DIIS
   @RHF iter   9:   -75.98112818585372   -1.50493e-11   3.40500e-08 DIIS
   @RHF iter  10:   -75.98112818585392   -1.98952e-13   4.56008e-09 DIIS
  Energy and wave function converged.


  ==> Post-Iterations <==

    Orbital Energies [Eh]
    ---------------------

    Doubly Occupied:                                                      

       1Ap   -20.563058     2Ap    -1.353890     3Ap    -0.703172  
       4Ap    -0.561212     1App   -0.501563  

    Virtual:                                                              

       5Ap     0.200223     6Ap     0.297406     7Ap     1.041786  
       2App    1.163989     8Ap     1.186217     9Ap     1.217798  
      10Ap     1.379559    11Ap     1.699725  

    Final Occupation by Irrep:
             Ap   App 
    DOCC [     4,    1 ]

  @RHF Final Energy:   -75.98112818585392

   => Energetics <=

    Nuclear Repulsion Energy =              9.1180306140528948
    One-Electron Energy =                -122.8325282144158876
    Two-Electron Energy =                  37.7333694145090703
    Total Energy =                        -75.9811281858539189

Computation Completed


Properties will be evaluated at   0.000000,   0.000000,   0.000000 [a0]

Properties computed using the SCF density matrix

  Nuclear Dipole Moment: [e a0]
     X:     0.0000      Y:     1.8388      Z:     1.3279

  Electronic Dipole Moment: [e a0]
     X:     0.0000      Y:    -1.0137      Z:    -0.6886

  Dipole Moment: [e a0]
     X:     0.0000      Y:     0.8251      Z:     0.6394     Total:     1.0438

  Dipole Moment: [D]
     X:     0.0000      Y:     2.0972      Z:     1.6251     Total:     2.6531


*** tstop() called on adabbott at Mon Jul 22 15:01:51 2019
Module time:
	user time   =       0.32 seconds =       0.01 minutes
	system time =       0.00 seconds =       0.00 minutes
	total time  =          0 seconds =       0.00 minutes
Total time:
	user time   =       0.32 seconds =       0.01 minutes
	system time =       0.00 seconds =       0.00 minutes
	total time  =          0 seconds =       0.00 minutes

*** tstart() called on adabbott
*** at Mon Jul 22 15:01:51 2019


         ------------------------------------------------------------
                                   SCF GRAD                          
                          Rob Parrish, Justin Turney,                
                       Andy Simmonett, and Alex Sokolov              
         ------------------------------------------------------------

  ==> Geometry <==

    Molecular point group: cs
    Full point group: Cs

    Geometry (in Angstrom), charge = 0, multiplicity = 1:

       Center              X                  Y                   Z               Mass       
    ------------   -----------------  -----------------  -----------------  -----------------
         H            0.000000000000     0.000000000000     0.933333333300     1.007825032230
         H            0.000000000000     0.973044870600    -0.230615870700     1.007825032230
         O            0.000000000000     0.000000000000     0.000000000000    15.994914619570

  Nuclear repulsion =    9.118030614052895

  ==> Basis Set <==

  Basis Set: 6-31G
    Blend: 6-31G
    Number of shells: 9
    Number of basis function: 13
    Number of Cartesian functions: 13
    Spherical Harmonics?: false
    Max angular momentum: 1

  ==> DirectJKGrad: Integral-Direct SCF Gradients <==

    Gradient:                    1
    J tasked:                  Yes
    K tasked:                  Yes
    wK tasked:                  No
    Integrals threads:           1
    Schwarz Cutoff:          0E+00


  -Total Gradient:
     Atom            X                  Y                   Z
    ------   -----------------  -----------------  -----------------
       1        0.000000000000     0.013800847420    -0.025579204875
       2        0.000000000000     0.043673302289     0.002886848314
       3        0.000000000000    -0.057474149709     0.022692356561


*** tstop() called on adabbott at Mon Jul 22 15:01:51 2019
Module time:
	user time   =       0.04 seconds =       0.00 minutes
	system time =       0.01 seconds =       0.00 minutes
	total time  =          0 seconds =       0.00 minutes
Total time:
	user time   =       0.36 seconds =       0.01 minutes
	system time =       0.01 seconds =       0.00 minutes
	total time  =          0 seconds =       0.00 minutes

    Psi4 stopped on: Monday, 22 July 2019 03:01PM
    Psi4 wall time for execution: 0:00:00.37

*** Psi4 exiting successfully. Buy a developer a beer!
