
Host: adabbott

Timers On : Fri Oct 23 14:39:58 2020
Timers Off: Fri Oct 23 14:43:41 2020

Wall Time:      223.48 seconds

                                                       Time (seconds)
Module                                       User      System        Wall        Calls

--------------------------------------------------------------------------------------

**************************************************************************************

Host: adabbott

Timers On : Sun Oct 25 16:49:30 2020
Timers Off: Sun Oct 25 16:49:33 2020

Wall Time:        3.22 seconds

                                                       Time (seconds)
Module                                       User      System        Wall        Calls

--------------------------------------------------------------------------------------

**************************************************************************************

Host: adabbott

Timers On : Sun Oct 25 16:50:28 2020
Timers Off: Sun Oct 25 16:50:32 2020

Wall Time:        3.81 seconds

                                                       Time (seconds)
Module                                       User      System        Wall        Calls

--------------------------------------------------------------------------------------

**************************************************************************************

Host: adabbott

Timers On : Sun Oct 25 16:50:46 2020
Timers Off: Sun Oct 25 16:50:49 2020

Wall Time:        2.55 seconds

                                                       Time (seconds)
Module                                       User      System        Wall        Calls

--------------------------------------------------------------------------------------

**************************************************************************************

Host: adabbott

Timers On : Sun Oct 25 16:51:43 2020
Timers Off: Sun Oct 25 16:51:45 2020

Wall Time:        2.13 seconds

                                                       Time (seconds)
Module                                       User      System        Wall        Calls

--------------------------------------------------------------------------------------

**************************************************************************************

Host: adabbott

Timers On : Sun Oct 25 16:52:08 2020
Timers Off: Sun Oct 25 16:52:18 2020

Wall Time:        9.87 seconds

                                                       Time (seconds)
Module                                       User      System        Wall        Calls

--------------------------------------------------------------------------------------

**************************************************************************************

Host: adabbott

Timers On : Mon Oct 26 17:02:26 2020
Timers Off: Mon Oct 26 17:03:04 2020

Wall Time:       37.97 seconds

                                                       Time (seconds)
Module                                       User      System        Wall        Calls

--------------------------------------------------------------------------------------

**************************************************************************************

Host: adabbott

Timers On : Mon Oct 26 17:10:26 2020
Timers Off: Mon Oct 26 17:14:39 2020

Wall Time:      253.13 seconds

                                                       Time (seconds)
Module                                       User      System        Wall        Calls

--------------------------------------------------------------------------------------

**************************************************************************************

Host: adabbott

Timers On : Thu Oct 29 17:03:47 2020
Timers Off: Thu Oct 29 17:03:48 2020

Wall Time:        0.34 seconds

                                                       Time (seconds)
Module                                       User      System        Wall        Calls

--------------------------------------------------------------------------------------

**************************************************************************************

Host: adabbott

Timers On : Thu Oct 29 17:04:29 2020
Timers Off: Thu Oct 29 17:04:30 2020

Wall Time:        0.34 seconds

                                                       Time (seconds)
Module                                       User      System        Wall        Calls

--------------------------------------------------------------------------------------

**************************************************************************************

Host: adabbott

Timers On : Thu Oct 29 17:04:46 2020
Timers Off: Thu Oct 29 17:04:47 2020

Wall Time:        0.34 seconds

                                                       Time (seconds)
Module                                       User      System        Wall        Calls

--------------------------------------------------------------------------------------

**************************************************************************************

Host: adabbott

Timers On : Thu Oct 29 17:15:05 2020
Timers Off: Thu Oct 29 17:15:05 2020

Wall Time:        0.35 seconds

                                                       Time (seconds)
Module                                       User      System        Wall        Calls

--------------------------------------------------------------------------------------

**************************************************************************************

Host: adabbott

Timers On : Thu Oct 29 17:15:23 2020
Timers Off: Thu Oct 29 17:15:23 2020

Wall Time:        0.34 seconds

                                                       Time (seconds)
Module                                       User      System        Wall        Calls

--------------------------------------------------------------------------------------

**************************************************************************************

Host: adabbott

Timers On : Thu Oct 29 17:15:54 2020
Timers Off: Thu Oct 29 17:15:54 2020

Wall Time:        0.35 seconds

                                                       Time (seconds)
Module                                       User      System        Wall        Calls

--------------------------------------------------------------------------------------

**************************************************************************************

Host: adabbott

Timers On : Thu Oct 29 17:18:38 2020
Timers Off: Thu Oct 29 17:18:39 2020

Wall Time:        0.34 seconds

                                                       Time (seconds)
Module                                       User      System        Wall        Calls

--------------------------------------------------------------------------------------

**************************************************************************************

Host: adabbott

Timers On : Thu Oct 29 17:18:54 2020
Timers Off: Thu Oct 29 17:18:54 2020

Wall Time:        0.34 seconds

                                                       Time (seconds)
Module                                       User      System        Wall        Calls

--------------------------------------------------------------------------------------

**************************************************************************************

Host: adabbott

Timers On : Thu Oct 29 17:19:49 2020
Timers Off: Thu Oct 29 17:19:49 2020

Wall Time:        0.34 seconds

                                                       Time (seconds)
Module                                       User      System        Wall        Calls

--------------------------------------------------------------------------------------

**************************************************************************************

Host: adabbott

Timers On : Thu Oct 29 17:20:05 2020
Timers Off: Thu Oct 29 17:20:06 2020

Wall Time:        0.34 seconds

                                                       Time (seconds)
Module                                       User      System        Wall        Calls

--------------------------------------------------------------------------------------

**************************************************************************************

Host: adabbott

Timers On : Thu Oct 29 17:21:46 2020
Timers Off: Thu Oct 29 17:21:46 2020

Wall Time:        0.34 seconds

                                                       Time (seconds)
Module                                       User      System        Wall        Calls

--------------------------------------------------------------------------------------

**************************************************************************************

Host: adabbott

Timers On : Thu Oct 29 17:23:35 2020
Timers Off: Thu Oct 29 17:23:35 2020

Wall Time:        0.34 seconds

                                                       Time (seconds)
Module                                       User      System        Wall        Calls

--------------------------------------------------------------------------------------

**************************************************************************************

Host: adabbott

Timers On : Thu Oct 29 17:24:34 2020
Timers Off: Thu Oct 29 17:24:35 2020

Wall Time:        0.34 seconds

                                                       Time (seconds)
Module                                       User      System        Wall        Calls

--------------------------------------------------------------------------------------

**************************************************************************************

Host: adabbott

Timers On : Thu Oct 29 17:30:50 2020
Timers Off: Thu Oct 29 17:30:50 2020

Wall Time:        0.34 seconds

                                                       Time (seconds)
Module                                       User      System        Wall        Calls

--------------------------------------------------------------------------------------

**************************************************************************************

Host: adabbott

Timers On : Fri Oct 30 23:12:38 2020
Timers Off: Fri Oct 30 23:12:38 2020

Wall Time:        0.35 seconds

                                                       Time (seconds)
Module                                       User      System        Wall        Calls

--------------------------------------------------------------------------------------

**************************************************************************************

Host: adabbott

Timers On : Fri Oct 30 23:12:46 2020
Timers Off: Fri Oct 30 23:12:46 2020

Wall Time:        0.34 seconds

                                                       Time (seconds)
Module                                       User      System        Wall        Calls

--------------------------------------------------------------------------------------

**************************************************************************************

Host: adabbott

Timers On : Fri Oct 30 23:13:01 2020
Timers Off: Fri Oct 30 23:13:01 2020

Wall Time:        0.33 seconds

                                                       Time (seconds)
Module                                       User      System        Wall        Calls

--------------------------------------------------------------------------------------

**************************************************************************************

Host: adabbott

Timers On : Fri Oct 30 23:15:06 2020
Timers Off: Fri Oct 30 23:15:06 2020

Wall Time:        0.33 seconds

                                                       Time (seconds)
Module                                       User      System        Wall        Calls

--------------------------------------------------------------------------------------

**************************************************************************************

Host: adabbott

Timers On : Fri Oct 30 23:36:00 2020
Timers Off: Fri Oct 30 23:36:01 2020

Wall Time:        0.33 seconds

                                                       Time (seconds)
Module                                       User      System        Wall        Calls

--------------------------------------------------------------------------------------

**************************************************************************************

Host: adabbott

Timers On : Sat Oct 31 00:53:15 2020
Timers Off: Sat Oct 31 00:53:16 2020

Wall Time:        0.34 seconds

                                                       Time (seconds)
Module                                       User      System        Wall        Calls

--------------------------------------------------------------------------------------

**************************************************************************************

Host: adabbott

Timers On : Sat Oct 31 00:54:30 2020
Timers Off: Sat Oct 31 00:54:31 2020

Wall Time:        0.35 seconds

                                                       Time (seconds)
Module                                       User      System        Wall        Calls

--------------------------------------------------------------------------------------

**************************************************************************************

Host: adabbott

Timers On : Sat Oct 31 10:21:30 2020
Timers Off: Sat Oct 31 10:21:31 2020

Wall Time:        0.34 seconds

                                                       Time (seconds)
Module                                       User      System        Wall        Calls

--------------------------------------------------------------------------------------

**************************************************************************************

Host: adabbott

Timers On : Sat Oct 31 10:34:42 2020
Timers Off: Sat Oct 31 10:34:42 2020

Wall Time:        0.34 seconds

                                                       Time (seconds)
Module                                       User      System        Wall        Calls

--------------------------------------------------------------------------------------

**************************************************************************************

Host: adabbott

Timers On : Sat Oct 31 11:06:11 2020
Timers Off: Sat Oct 31 11:06:12 2020

Wall Time:        0.34 seconds

                                                       Time (seconds)
Module                                       User      System        Wall        Calls

--------------------------------------------------------------------------------------

**************************************************************************************

Host: adabbott

Timers On : Sat Oct 31 11:33:25 2020
Timers Off: Sat Oct 31 11:33:25 2020

Wall Time:        0.34 seconds

                                                       Time (seconds)
Module                                       User      System        Wall        Calls

--------------------------------------------------------------------------------------

**************************************************************************************

Host: adabbott

Timers On : Sat Oct 31 11:53:17 2020
Timers Off: Sat Oct 31 11:53:17 2020

Wall Time:        0.34 seconds

                                                       Time (seconds)
Module                                       User      System        Wall        Calls

--------------------------------------------------------------------------------------

**************************************************************************************

Host: adabbott

Timers On : Sat Oct 31 12:02:24 2020
Timers Off: Sat Oct 31 12:02:24 2020

Wall Time:        0.34 seconds

                                                       Time (seconds)
Module                                       User      System        Wall        Calls

--------------------------------------------------------------------------------------

**************************************************************************************

Host: adabbott

Timers On : Sat Oct 31 14:00:22 2020
Timers Off: Sat Oct 31 14:00:23 2020

Wall Time:        0.34 seconds

                                                       Time (seconds)
Module                                       User      System        Wall        Calls

--------------------------------------------------------------------------------------

**************************************************************************************

Host: adabbott

Timers On : Sat Oct 31 15:30:19 2020
Timers Off: Sat Oct 31 15:30:20 2020

Wall Time:        0.34 seconds

                                                       Time (seconds)
Module                                       User      System        Wall        Calls

--------------------------------------------------------------------------------------

**************************************************************************************

Host: adabbott

Timers On : Sat Oct 31 15:31:28 2020
Timers Off: Sat Oct 31 15:31:28 2020

Wall Time:        0.34 seconds

                                                       Time (seconds)
Module                                       User      System        Wall        Calls

--------------------------------------------------------------------------------------

**************************************************************************************

Host: adabbott

Timers On : Sat Oct 31 15:33:05 2020
Timers Off: Sat Oct 31 15:33:06 2020

Wall Time:        0.34 seconds

                                                       Time (seconds)
Module                                       User      System        Wall        Calls

--------------------------------------------------------------------------------------

**************************************************************************************

Host: adabbott

Timers On : Sat Oct 31 15:33:31 2020
Timers Off: Sat Oct 31 15:33:31 2020

Wall Time:        0.34 seconds

                                                       Time (seconds)
Module                                       User      System        Wall        Calls

--------------------------------------------------------------------------------------

**************************************************************************************

Host: adabbott

Timers On : Sat Oct 31 15:35:17 2020
Timers Off: Sat Oct 31 15:35:18 2020

Wall Time:        0.36 seconds

                                                       Time (seconds)
Module                                       User      System        Wall        Calls

--------------------------------------------------------------------------------------

**************************************************************************************

Host: adabbott

Timers On : Sat Oct 31 15:35:31 2020
Timers Off: Sat Oct 31 15:35:31 2020

Wall Time:        0.34 seconds

                                                       Time (seconds)
Module                                       User      System        Wall        Calls

--------------------------------------------------------------------------------------

**************************************************************************************

Host: adabbott

Timers On : Sat Oct 31 15:44:41 2020
Timers Off: Sat Oct 31 15:44:42 2020

Wall Time:        0.41 seconds

                                                       Time (seconds)
Module                                       User      System        Wall        Calls

--------------------------------------------------------------------------------------

**************************************************************************************

Host: adabbott

Timers On : Sat Oct 31 15:50:33 2020
Timers Off: Sat Oct 31 15:50:33 2020

Wall Time:        0.34 seconds

                                                       Time (seconds)
Module                                       User      System        Wall        Calls

--------------------------------------------------------------------------------------

**************************************************************************************

Host: adabbott

Timers On : Sat Oct 31 16:22:51 2020
Timers Off: Sat Oct 31 16:22:51 2020

Wall Time:        0.35 seconds

                                                       Time (seconds)
Module                                       User      System        Wall        Calls

--------------------------------------------------------------------------------------

**************************************************************************************

Host: adabbott

Timers On : Sat Oct 31 16:22:56 2020
Timers Off: Sat Oct 31 16:22:57 2020

Wall Time:        0.35 seconds

                                                       Time (seconds)
Module                                       User      System        Wall        Calls

--------------------------------------------------------------------------------------

**************************************************************************************

Host: adabbott

Timers On : Sat Oct 31 16:32:20 2020
Timers Off: Sat Oct 31 16:32:20 2020

Wall Time:        0.35 seconds

                                                       Time (seconds)
Module                                       User      System        Wall        Calls

--------------------------------------------------------------------------------------

**************************************************************************************

Host: adabbott

Timers On : Sat Oct 31 16:42:39 2020
Timers Off: Sat Oct 31 16:42:39 2020

Wall Time:        0.34 seconds

                                                       Time (seconds)
Module                                       User      System        Wall        Calls

--------------------------------------------------------------------------------------

**************************************************************************************

Host: adabbott

Timers On : Sat Oct 31 16:55:28 2020
Timers Off: Sat Oct 31 16:55:28 2020

Wall Time:        0.34 seconds

                                                       Time (seconds)
Module                                       User      System        Wall        Calls

--------------------------------------------------------------------------------------

**************************************************************************************

Host: adabbott

Timers On : Sat Oct 31 16:58:54 2020
Timers Off: Sat Oct 31 16:58:55 2020

Wall Time:        0.35 seconds

                                                       Time (seconds)
Module                                       User      System        Wall        Calls

--------------------------------------------------------------------------------------

**************************************************************************************

Host: adabbott

Timers On : Sat Oct 31 17:00:04 2020
Timers Off: Sat Oct 31 17:00:04 2020

Wall Time:        0.35 seconds

                                                       Time (seconds)
Module                                       User      System        Wall        Calls

--------------------------------------------------------------------------------------

**************************************************************************************

Host: adabbott

Timers On : Sat Oct 31 17:11:37 2020
Timers Off: Sat Oct 31 17:11:38 2020

Wall Time:        0.35 seconds

                                                       Time (seconds)
Module                                       User      System        Wall        Calls

--------------------------------------------------------------------------------------

**************************************************************************************

Host: adabbott

Timers On : Sat Oct 31 17:44:05 2020
Timers Off: Sat Oct 31 17:44:05 2020

Wall Time:        0.34 seconds

                                                       Time (seconds)
Module                                       User      System        Wall        Calls

--------------------------------------------------------------------------------------

**************************************************************************************

Host: adabbott

Timers On : Sat Oct 31 17:44:08 2020
Timers Off: Sat Oct 31 17:44:09 2020

Wall Time:        0.35 seconds

                                                       Time (seconds)
Module                                       User      System        Wall        Calls

--------------------------------------------------------------------------------------

**************************************************************************************

Host: adabbott

Timers On : Sat Oct 31 18:17:18 2020
Timers Off: Sat Oct 31 18:17:18 2020

Wall Time:        0.34 seconds

                                                       Time (seconds)
Module                                       User      System        Wall        Calls

--------------------------------------------------------------------------------------

**************************************************************************************

Host: adabbott

Timers On : Sat Oct 31 18:17:21 2020
Timers Off: Sat Oct 31 18:17:22 2020

Wall Time:        0.35 seconds

                                                       Time (seconds)
Module                                       User      System        Wall        Calls

--------------------------------------------------------------------------------------

**************************************************************************************

Host: adabbott

Timers On : Sat Oct 31 18:35:16 2020
Timers Off: Sat Oct 31 18:35:16 2020

Wall Time:        0.34 seconds

                                                       Time (seconds)
Module                                       User      System        Wall        Calls

--------------------------------------------------------------------------------------

**************************************************************************************

Host: adabbott

Timers On : Sat Oct 31 18:35:24 2020
Timers Off: Sat Oct 31 18:35:24 2020

Wall Time:        0.34 seconds

                                                       Time (seconds)
Module                                       User      System        Wall        Calls

--------------------------------------------------------------------------------------

**************************************************************************************

Host: adabbott

Timers On : Sat Oct 31 18:35:48 2020
Timers Off: Sat Oct 31 18:35:49 2020

Wall Time:        0.35 seconds

                                                       Time (seconds)
Module                                       User      System        Wall        Calls

--------------------------------------------------------------------------------------

**************************************************************************************

Host: adabbott

Timers On : Sat Oct 31 18:38:48 2020
Timers Off: Sat Oct 31 18:38:49 2020

Wall Time:        0.35 seconds

                                                       Time (seconds)
Module                                       User      System        Wall        Calls

--------------------------------------------------------------------------------------

**************************************************************************************

Host: adabbott

Timers On : Sat Oct 31 18:44:57 2020
Timers Off: Sat Oct 31 18:44:58 2020

Wall Time:        0.35 seconds

                                                       Time (seconds)
Module                                       User      System        Wall        Calls

--------------------------------------------------------------------------------------

**************************************************************************************

Host: adabbott

Timers On : Sat Oct 31 20:21:19 2020
Timers Off: Sat Oct 31 20:21:19 2020

Wall Time:        0.36 seconds

                                                       Time (seconds)
Module                                       User      System        Wall        Calls

--------------------------------------------------------------------------------------

**************************************************************************************

Host: adabbott

Timers On : Sat Oct 31 20:21:38 2020
Timers Off: Sat Oct 31 20:21:39 2020

Wall Time:        0.38 seconds

                                                       Time (seconds)
Module                                       User      System        Wall        Calls

--------------------------------------------------------------------------------------

**************************************************************************************

Host: adabbott

Timers On : Sat Oct 31 20:21:53 2020
Timers Off: Sat Oct 31 20:21:53 2020

Wall Time:        0.38 seconds

                                                       Time (seconds)
Module                                       User      System        Wall        Calls

--------------------------------------------------------------------------------------

**************************************************************************************

Host: adabbott

Timers On : Sat Oct 31 20:24:42 2020
Timers Off: Sat Oct 31 20:24:43 2020

Wall Time:        0.34 seconds

                                                       Time (seconds)
Module                                       User      System        Wall        Calls

--------------------------------------------------------------------------------------

**************************************************************************************

Host: adabbott

Timers On : Sat Oct 31 20:30:16 2020
Timers Off: Sat Oct 31 20:30:16 2020

Wall Time:        0.34 seconds

                                                       Time (seconds)
Module                                       User      System        Wall        Calls

--------------------------------------------------------------------------------------

**************************************************************************************

Host: adabbott

Timers On : Sat Oct 31 20:31:47 2020
Timers Off: Sat Oct 31 20:31:48 2020

Wall Time:        0.33 seconds

                                                       Time (seconds)
Module                                       User      System        Wall        Calls

--------------------------------------------------------------------------------------

**************************************************************************************

Host: adabbott

Timers On : Sat Oct 31 20:45:44 2020
Timers Off: Sat Oct 31 20:45:45 2020

Wall Time:        0.33 seconds

                                                       Time (seconds)
Module                                       User      System        Wall        Calls

--------------------------------------------------------------------------------------

**************************************************************************************

Host: adabbott

Timers On : Sat Oct 31 20:50:22 2020
Timers Off: Sat Oct 31 20:50:23 2020

Wall Time:        0.34 seconds

                                                       Time (seconds)
Module                                       User      System        Wall        Calls

--------------------------------------------------------------------------------------

**************************************************************************************

Host: adabbott

Timers On : Sat Oct 31 22:57:03 2020
Timers Off: Sat Oct 31 22:57:03 2020

Wall Time:        0.34 seconds

                                                       Time (seconds)
Module                                       User      System        Wall        Calls

--------------------------------------------------------------------------------------

**************************************************************************************

Host: adabbott

Timers On : Sat Oct 31 22:57:54 2020
Timers Off: Sat Oct 31 22:57:55 2020

Wall Time:        0.34 seconds

                                                       Time (seconds)
Module                                       User      System        Wall        Calls

--------------------------------------------------------------------------------------

**************************************************************************************

Host: adabbott

Timers On : Sat Oct 31 22:59:28 2020
Timers Off: Sat Oct 31 22:59:28 2020

Wall Time:        0.34 seconds

                                                       Time (seconds)
Module                                       User      System        Wall        Calls

--------------------------------------------------------------------------------------

**************************************************************************************

Host: adabbott

Timers On : Sat Oct 31 23:01:10 2020
Timers Off: Sat Oct 31 23:01:11 2020

Wall Time:        0.34 seconds

                                                       Time (seconds)
Module                                       User      System        Wall        Calls

--------------------------------------------------------------------------------------

**************************************************************************************

Host: adabbott

Timers On : Sat Oct 31 23:03:34 2020
Timers Off: Sat Oct 31 23:03:35 2020

Wall Time:        0.34 seconds

                                                       Time (seconds)
Module                                       User      System        Wall        Calls

--------------------------------------------------------------------------------------

**************************************************************************************

Host: adabbott

Timers On : Sat Oct 31 23:05:24 2020
Timers Off: Sat Oct 31 23:05:24 2020

Wall Time:        0.34 seconds

                                                       Time (seconds)
Module                                       User      System        Wall        Calls

--------------------------------------------------------------------------------------

**************************************************************************************

Host: adabbott

Timers On : Sat Oct 31 23:18:10 2020
Timers Off: Sat Oct 31 23:18:11 2020

Wall Time:        0.32 seconds

                                                       Time (seconds)
Module                                       User      System        Wall        Calls

--------------------------------------------------------------------------------------

**************************************************************************************

Host: adabbott

Timers On : Sat Oct 31 23:19:08 2020
Timers Off: Sat Oct 31 23:19:09 2020

Wall Time:        0.28 seconds

                                                       Time (seconds)
Module                                       User      System        Wall        Calls

--------------------------------------------------------------------------------------

**************************************************************************************

Host: adabbott

Timers On : Sun Nov  1 00:09:44 2020
Timers Off: Sun Nov  1 00:09:45 2020

Wall Time:        0.28 seconds

                                                       Time (seconds)
Module                                       User      System        Wall        Calls

--------------------------------------------------------------------------------------

**************************************************************************************

Host: adabbott

Timers On : Sun Nov  1 00:09:57 2020
Timers Off: Sun Nov  1 00:09:57 2020

Wall Time:        0.34 seconds

                                                       Time (seconds)
Module                                       User      System        Wall        Calls

--------------------------------------------------------------------------------------

**************************************************************************************

Host: adabbott

Timers On : Sun Nov  1 00:12:12 2020
Timers Off: Sun Nov  1 00:12:13 2020

Wall Time:        0.34 seconds

                                                       Time (seconds)
Module                                       User      System        Wall        Calls

--------------------------------------------------------------------------------------

**************************************************************************************

Host: adabbott

Timers On : Sun Nov  1 00:17:56 2020
Timers Off: Sun Nov  1 00:17:56 2020

Wall Time:        0.33 seconds

                                                       Time (seconds)
Module                                       User      System        Wall        Calls

--------------------------------------------------------------------------------------

**************************************************************************************

Host: adabbott

Timers On : Sun Nov  1 00:19:44 2020
Timers Off: Sun Nov  1 00:19:44 2020

Wall Time:        0.34 seconds

                                                       Time (seconds)
Module                                       User      System        Wall        Calls

--------------------------------------------------------------------------------------

**************************************************************************************

Host: adabbott

Timers On : Sun Nov  1 00:20:44 2020
Timers Off: Sun Nov  1 00:20:44 2020

Wall Time:        0.34 seconds

                                                       Time (seconds)
Module                                       User      System        Wall        Calls

--------------------------------------------------------------------------------------

**************************************************************************************

Host: adabbott

Timers On : Sun Nov  1 00:32:16 2020
Timers Off: Sun Nov  1 00:32:16 2020

Wall Time:        0.34 seconds

                                                       Time (seconds)
Module                                       User      System        Wall        Calls

--------------------------------------------------------------------------------------

**************************************************************************************

Host: adabbott

Timers On : Sun Nov  1 00:34:16 2020
Timers Off: Sun Nov  1 00:34:17 2020

Wall Time:        0.35 seconds

                                                       Time (seconds)
Module                                       User      System        Wall        Calls

--------------------------------------------------------------------------------------

**************************************************************************************

Host: adabbott

Timers On : Sun Nov  1 09:51:24 2020
Timers Off: Sun Nov  1 09:51:25 2020

Wall Time:        0.35 seconds

                                                       Time (seconds)
Module                                       User      System        Wall        Calls

--------------------------------------------------------------------------------------

**************************************************************************************

Host: adabbott

Timers On : Sun Nov  1 13:44:25 2020
Timers Off: Sun Nov  1 13:44:26 2020

Wall Time:        0.34 seconds

                                                       Time (seconds)
Module                                       User      System        Wall        Calls

--------------------------------------------------------------------------------------

**************************************************************************************

Host: adabbott

Timers On : Sun Nov  1 13:46:53 2020
Timers Off: Sun Nov  1 13:46:54 2020

Wall Time:        0.34 seconds

                                                       Time (seconds)
Module                                       User      System        Wall        Calls

--------------------------------------------------------------------------------------

**************************************************************************************

Host: adabbott

Timers On : Sun Nov  1 13:47:00 2020
Timers Off: Sun Nov  1 13:47:00 2020

Wall Time:        0.35 seconds

                                                       Time (seconds)
Module                                       User      System        Wall        Calls

--------------------------------------------------------------------------------------

**************************************************************************************

Host: adabbott

Timers On : Sun Nov  1 13:48:44 2020
Timers Off: Sun Nov  1 13:48:44 2020

Wall Time:        0.34 seconds

                                                       Time (seconds)
Module                                       User      System        Wall        Calls

--------------------------------------------------------------------------------------

**************************************************************************************

Host: adabbott

Timers On : Sun Nov  1 13:55:50 2020
Timers Off: Sun Nov  1 13:55:50 2020

Wall Time:        0.34 seconds

                                                       Time (seconds)
Module                                       User      System        Wall        Calls

--------------------------------------------------------------------------------------

**************************************************************************************

Host: adabbott

Timers On : Sun Nov  1 14:00:48 2020
Timers Off: Sun Nov  1 14:00:48 2020

Wall Time:        0.34 seconds

                                                       Time (seconds)
Module                                       User      System        Wall        Calls

--------------------------------------------------------------------------------------

**************************************************************************************

Host: adabbott

Timers On : Sun Nov  1 14:10:17 2020
Timers Off: Sun Nov  1 14:10:17 2020

Wall Time:        0.28 seconds

                                                       Time (seconds)
Module                                       User      System        Wall        Calls

--------------------------------------------------------------------------------------

**************************************************************************************

Host: adabbott

Timers On : Sun Nov  1 14:10:25 2020
Timers Off: Sun Nov  1 14:10:26 2020

Wall Time:        0.36 seconds

                                                       Time (seconds)
Module                                       User      System        Wall        Calls

--------------------------------------------------------------------------------------

**************************************************************************************

Host: adabbott

Timers On : Sun Nov  1 14:10:53 2020
Timers Off: Sun Nov  1 14:10:54 2020

Wall Time:        0.34 seconds

                                                       Time (seconds)
Module                                       User      System        Wall        Calls

--------------------------------------------------------------------------------------

**************************************************************************************

Host: adabbott

Timers On : Sun Nov  1 14:11:45 2020
Timers Off: Sun Nov  1 14:11:45 2020

Wall Time:        0.36 seconds

                                                       Time (seconds)
Module                                       User      System        Wall        Calls

--------------------------------------------------------------------------------------

**************************************************************************************

Host: adabbott

Timers On : Sun Nov  1 14:23:40 2020
Timers Off: Sun Nov  1 14:23:40 2020

Wall Time:        0.36 seconds

                                                       Time (seconds)
Module                                       User      System        Wall        Calls

--------------------------------------------------------------------------------------

**************************************************************************************

Host: adabbott

Timers On : Sun Nov  1 14:30:56 2020
Timers Off: Sun Nov  1 14:30:56 2020

Wall Time:        0.36 seconds

                                                       Time (seconds)
Module                                       User      System        Wall        Calls

--------------------------------------------------------------------------------------

**************************************************************************************

Host: adabbott

Timers On : Sun Nov  1 15:38:05 2020
Timers Off: Sun Nov  1 15:38:06 2020

Wall Time:        0.36 seconds

                                                       Time (seconds)
Module                                       User      System        Wall        Calls

--------------------------------------------------------------------------------------

**************************************************************************************

Host: adabbott

Timers On : Sun Nov  1 16:00:48 2020
Timers Off: Sun Nov  1 16:00:49 2020

Wall Time:        0.38 seconds

                                                       Time (seconds)
Module                                       User      System        Wall        Calls

--------------------------------------------------------------------------------------

**************************************************************************************

Host: adabbott

Timers On : Sun Nov  1 17:23:47 2020
Timers Off: Sun Nov  1 17:23:48 2020

Wall Time:        0.35 seconds

                                                       Time (seconds)
Module                                       User      System        Wall        Calls

--------------------------------------------------------------------------------------

**************************************************************************************

Host: adabbott

Timers On : Sun Nov  1 17:24:16 2020
Timers Off: Sun Nov  1 17:24:16 2020

Wall Time:        0.34 seconds

                                                       Time (seconds)
Module                                       User      System        Wall        Calls

--------------------------------------------------------------------------------------

**************************************************************************************

Host: adabbott

Timers On : Sun Nov  1 17:25:48 2020
Timers Off: Sun Nov  1 17:25:49 2020

Wall Time:        0.33 seconds

                                                       Time (seconds)
Module                                       User      System        Wall        Calls

--------------------------------------------------------------------------------------

**************************************************************************************

Host: adabbott

Timers On : Sun Nov  1 20:37:21 2020
Timers Off: Sun Nov  1 20:37:21 2020

Wall Time:        0.34 seconds

                                                       Time (seconds)
Module                                       User      System        Wall        Calls

--------------------------------------------------------------------------------------

**************************************************************************************

Host: adabbott

Timers On : Sun Nov  1 21:36:42 2020
Timers Off: Sun Nov  1 21:36:42 2020

Wall Time:        0.33 seconds

                                                       Time (seconds)
Module                                       User      System        Wall        Calls

--------------------------------------------------------------------------------------

**************************************************************************************

Host: adabbott

Timers On : Sun Nov  1 22:13:11 2020
Timers Off: Sun Nov  1 22:13:11 2020

Wall Time:        0.35 seconds

                                                       Time (seconds)
Module                                       User      System        Wall        Calls

--------------------------------------------------------------------------------------

**************************************************************************************

Host: adabbott

Timers On : Sun Nov  1 22:14:53 2020
Timers Off: Sun Nov  1 22:14:54 2020

Wall Time:        0.34 seconds

                                                       Time (seconds)
Module                                       User      System        Wall        Calls

--------------------------------------------------------------------------------------

**************************************************************************************

Host: adabbott

Timers On : Sun Nov  1 22:25:46 2020
Timers Off: Sun Nov  1 22:25:46 2020

Wall Time:        0.34 seconds

                                                       Time (seconds)
Module                                       User      System        Wall        Calls

--------------------------------------------------------------------------------------

**************************************************************************************

Host: adabbott

Timers On : Sun Nov  1 22:26:50 2020
Timers Off: Sun Nov  1 22:26:50 2020

Wall Time:        0.34 seconds

                                                       Time (seconds)
Module                                       User      System        Wall        Calls

--------------------------------------------------------------------------------------

**************************************************************************************

Host: adabbott

Timers On : Sun Nov  1 22:30:02 2020
Timers Off: Sun Nov  1 22:30:02 2020

Wall Time:        0.33 seconds

                                                       Time (seconds)
Module                                       User      System        Wall        Calls

--------------------------------------------------------------------------------------

**************************************************************************************

Host: adabbott

Timers On : Sun Nov  1 22:40:31 2020
Timers Off: Sun Nov  1 22:40:31 2020

Wall Time:        0.33 seconds

                                                       Time (seconds)
Module                                       User      System        Wall        Calls

--------------------------------------------------------------------------------------

**************************************************************************************

Host: adabbott

Timers On : Sun Nov  1 22:41:41 2020
Timers Off: Sun Nov  1 22:41:42 2020

Wall Time:        0.34 seconds

                                                       Time (seconds)
Module                                       User      System        Wall        Calls

--------------------------------------------------------------------------------------

**************************************************************************************

Host: adabbott

Timers On : Sun Nov  1 22:46:47 2020
Timers Off: Sun Nov  1 22:46:47 2020

Wall Time:        0.34 seconds

                                                       Time (seconds)
Module                                       User      System        Wall        Calls

--------------------------------------------------------------------------------------

**************************************************************************************

Host: adabbott

Timers On : Sun Nov  1 22:50:35 2020
Timers Off: Sun Nov  1 22:50:36 2020

Wall Time:        0.33 seconds

                                                       Time (seconds)
Module                                       User      System        Wall        Calls

--------------------------------------------------------------------------------------

**************************************************************************************

Host: adabbott

Timers On : Sun Nov  1 22:51:50 2020
Timers Off: Sun Nov  1 22:51:50 2020

Wall Time:        0.34 seconds

                                                       Time (seconds)
Module                                       User      System        Wall        Calls

--------------------------------------------------------------------------------------

**************************************************************************************

Host: adabbott

Timers On : Sun Nov  1 22:53:39 2020
Timers Off: Sun Nov  1 22:53:39 2020

Wall Time:        0.34 seconds

                                                       Time (seconds)
Module                                       User      System        Wall        Calls

--------------------------------------------------------------------------------------

**************************************************************************************

Host: adabbott

Timers On : Mon Nov  2 09:40:47 2020
Timers Off: Mon Nov  2 09:40:47 2020

Wall Time:        0.34 seconds

                                                       Time (seconds)
Module                                       User      System        Wall        Calls

--------------------------------------------------------------------------------------

**************************************************************************************

Host: adabbott

Timers On : Mon Nov  2 10:20:59 2020
Timers Off: Mon Nov  2 10:21:00 2020

Wall Time:        0.34 seconds

                                                       Time (seconds)
Module                                       User      System        Wall        Calls

--------------------------------------------------------------------------------------

**************************************************************************************

Host: adabbott

Timers On : Mon Nov  2 10:22:38 2020
Timers Off: Mon Nov  2 10:22:38 2020

Wall Time:        0.35 seconds

                                                       Time (seconds)
Module                                       User      System        Wall        Calls

--------------------------------------------------------------------------------------

**************************************************************************************

Host: adabbott

Timers On : Mon Nov  2 10:25:53 2020
Timers Off: Mon Nov  2 10:25:53 2020

Wall Time:        0.35 seconds

                                                       Time (seconds)
Module                                       User      System        Wall        Calls

--------------------------------------------------------------------------------------

**************************************************************************************

Host: adabbott

Timers On : Mon Nov  2 10:27:17 2020
Timers Off: Mon Nov  2 10:27:17 2020

Wall Time:        0.40 seconds

                                                       Time (seconds)
Module                                       User      System        Wall        Calls

--------------------------------------------------------------------------------------

**************************************************************************************

Host: adabbott

Timers On : Mon Nov  2 11:37:36 2020
Timers Off: Mon Nov  2 11:37:37 2020

Wall Time:        0.35 seconds

                                                       Time (seconds)
Module                                       User      System        Wall        Calls

--------------------------------------------------------------------------------------

**************************************************************************************

Host: adabbott

Timers On : Mon Nov  2 11:47:59 2020
Timers Off: Mon Nov  2 11:47:59 2020

Wall Time:        0.34 seconds

                                                       Time (seconds)
Module                                       User      System        Wall        Calls

--------------------------------------------------------------------------------------

**************************************************************************************

Host: adabbott

Timers On : Mon Nov  2 12:09:33 2020
Timers Off: Mon Nov  2 12:09:34 2020

Wall Time:        0.34 seconds

                                                       Time (seconds)
Module                                       User      System        Wall        Calls

--------------------------------------------------------------------------------------

**************************************************************************************

Host: adabbott

Timers On : Mon Nov  2 12:11:35 2020
Timers Off: Mon Nov  2 12:11:35 2020

Wall Time:        0.35 seconds

                                                       Time (seconds)
Module                                       User      System        Wall        Calls

--------------------------------------------------------------------------------------

**************************************************************************************

Host: adabbott

Timers On : Mon Nov  2 12:14:22 2020
Timers Off: Mon Nov  2 12:14:22 2020

Wall Time:        0.34 seconds

                                                       Time (seconds)
Module                                       User      System        Wall        Calls

--------------------------------------------------------------------------------------

**************************************************************************************

Host: adabbott

Timers On : Mon Nov  2 12:21:48 2020
Timers Off: Mon Nov  2 12:21:49 2020

Wall Time:        0.34 seconds

                                                       Time (seconds)
Module                                       User      System        Wall        Calls

--------------------------------------------------------------------------------------

**************************************************************************************

Host: adabbott

Timers On : Mon Nov  2 12:22:12 2020
Timers Off: Mon Nov  2 12:22:13 2020

Wall Time:        0.29 seconds

                                                       Time (seconds)
Module                                       User      System        Wall        Calls

--------------------------------------------------------------------------------------

**************************************************************************************

Host: adabbott

Timers On : Mon Nov  2 12:23:19 2020
Timers Off: Mon Nov  2 12:23:19 2020

Wall Time:        0.29 seconds

                                                       Time (seconds)
Module                                       User      System        Wall        Calls

--------------------------------------------------------------------------------------

**************************************************************************************

Host: adabbott

Timers On : Mon Nov  2 12:23:25 2020
Timers Off: Mon Nov  2 12:23:26 2020

Wall Time:        0.28 seconds

                                                       Time (seconds)
Module                                       User      System        Wall        Calls

--------------------------------------------------------------------------------------

**************************************************************************************

Host: adabbott

Timers On : Mon Nov  2 12:23:33 2020
Timers Off: Mon Nov  2 12:23:34 2020

Wall Time:        0.28 seconds

                                                       Time (seconds)
Module                                       User      System        Wall        Calls

--------------------------------------------------------------------------------------

**************************************************************************************

Host: adabbott

Timers On : Mon Nov  2 12:25:51 2020
Timers Off: Mon Nov  2 12:25:51 2020

Wall Time:        0.28 seconds

                                                       Time (seconds)
Module                                       User      System        Wall        Calls

--------------------------------------------------------------------------------------

**************************************************************************************

Host: adabbott

Timers On : Mon Nov  2 13:58:02 2020
Timers Off: Mon Nov  2 13:58:03 2020

Wall Time:        0.28 seconds

                                                       Time (seconds)
Module                                       User      System        Wall        Calls

--------------------------------------------------------------------------------------

**************************************************************************************

Host: adabbott

Timers On : Mon Nov  2 13:59:38 2020
Timers Off: Mon Nov  2 13:59:38 2020

Wall Time:        0.28 seconds

                                                       Time (seconds)
Module                                       User      System        Wall        Calls

--------------------------------------------------------------------------------------

**************************************************************************************

Host: adabbott

Timers On : Mon Nov  2 14:06:12 2020
Timers Off: Mon Nov  2 14:06:13 2020

Wall Time:        0.29 seconds

                                                       Time (seconds)
Module                                       User      System        Wall        Calls

--------------------------------------------------------------------------------------

**************************************************************************************

Host: adabbott

Timers On : Mon Nov  2 14:06:20 2020
Timers Off: Mon Nov  2 14:06:21 2020

Wall Time:        0.28 seconds

                                                       Time (seconds)
Module                                       User      System        Wall        Calls

--------------------------------------------------------------------------------------

**************************************************************************************

Host: adabbott

Timers On : Mon Nov  2 14:12:43 2020
Timers Off: Mon Nov  2 14:12:43 2020

Wall Time:        0.28 seconds

                                                       Time (seconds)
Module                                       User      System        Wall        Calls

--------------------------------------------------------------------------------------

**************************************************************************************

Host: adabbott

Timers On : Mon Nov  2 14:29:26 2020
Timers Off: Mon Nov  2 14:29:26 2020

Wall Time:        0.28 seconds

                                                       Time (seconds)
Module                                       User      System        Wall        Calls

--------------------------------------------------------------------------------------

**************************************************************************************

Host: adabbott

Timers On : Mon Nov  2 14:34:47 2020
Timers Off: Mon Nov  2 14:34:47 2020

Wall Time:        0.29 seconds

                                                       Time (seconds)
Module                                       User      System        Wall        Calls

--------------------------------------------------------------------------------------

**************************************************************************************

Host: adabbott

Timers On : Mon Nov  2 14:37:54 2020
Timers Off: Mon Nov  2 14:37:54 2020

Wall Time:        0.30 seconds

                                                       Time (seconds)
Module                                       User      System        Wall        Calls

--------------------------------------------------------------------------------------

**************************************************************************************

Host: adabbott

Timers On : Mon Nov  2 14:52:51 2020
Timers Off: Mon Nov  2 14:52:51 2020

Wall Time:        0.28 seconds

                                                       Time (seconds)
Module                                       User      System        Wall        Calls

--------------------------------------------------------------------------------------

**************************************************************************************

Host: adabbott

Timers On : Mon Nov  2 18:05:20 2020
Timers Off: Mon Nov  2 18:05:21 2020

Wall Time:        0.34 seconds

                                                       Time (seconds)
Module                                       User      System        Wall        Calls

--------------------------------------------------------------------------------------

**************************************************************************************

Host: adabbott

Timers On : Mon Nov  2 18:08:07 2020
Timers Off: Mon Nov  2 18:08:07 2020

Wall Time:        0.35 seconds

                                                       Time (seconds)
Module                                       User      System        Wall        Calls

--------------------------------------------------------------------------------------

**************************************************************************************

Host: adabbott

Timers On : Mon Nov  2 18:08:29 2020
Timers Off: Mon Nov  2 18:08:30 2020

Wall Time:        0.36 seconds

                                                       Time (seconds)
Module                                       User      System        Wall        Calls

--------------------------------------------------------------------------------------

**************************************************************************************

Host: adabbott

Timers On : Mon Nov  2 18:14:00 2020
Timers Off: Mon Nov  2 18:14:00 2020

Wall Time:        0.76 seconds

                                                       Time (seconds)
Module                                       User      System        Wall        Calls

--------------------------------------------------------------------------------------

**************************************************************************************

Host: adabbott

Timers On : Mon Nov  2 18:14:19 2020
Timers Off: Mon Nov  2 18:15:25 2020

Wall Time:       65.83 seconds

                                                       Time (seconds)
Module                                       User      System        Wall        Calls

--------------------------------------------------------------------------------------

**************************************************************************************

Host: adabbott

Timers On : Mon Nov  2 21:09:08 2020
Timers Off: Mon Nov  2 21:09:09 2020

Wall Time:        0.35 seconds

                                                       Time (seconds)
Module                                       User      System        Wall        Calls

--------------------------------------------------------------------------------------

**************************************************************************************

Host: adabbott

Timers On : Tue Nov  3 11:05:16 2020
Timers Off: Tue Nov  3 11:06:24 2020

Wall Time:       68.90 seconds

                                                       Time (seconds)
Module                                       User      System        Wall        Calls

--------------------------------------------------------------------------------------

**************************************************************************************

Host: adabbott

Timers On : Tue Nov  3 11:24:55 2020
Timers Off: Tue Nov  3 11:24:55 2020

Wall Time:        0.36 seconds

                                                       Time (seconds)
Module                                       User      System        Wall        Calls

--------------------------------------------------------------------------------------

**************************************************************************************

Host: adabbott

Timers On : Tue Nov  3 11:28:34 2020
Timers Off: Tue Nov  3 11:29:42 2020

Wall Time:       68.15 seconds

                                                       Time (seconds)
Module                                       User      System        Wall        Calls

--------------------------------------------------------------------------------------

**************************************************************************************

Host: adabbott

Timers On : Tue Nov  3 11:29:54 2020
Timers Off: Tue Nov  3 11:29:54 2020

Wall Time:        0.35 seconds

                                                       Time (seconds)
Module                                       User      System        Wall        Calls

--------------------------------------------------------------------------------------

**************************************************************************************

Host: adabbott

Timers On : Tue Nov  3 11:40:23 2020
Timers Off: Tue Nov  3 11:40:23 2020

Wall Time:        0.37 seconds

                                                       Time (seconds)
Module                                       User      System        Wall        Calls

--------------------------------------------------------------------------------------

**************************************************************************************

Host: adabbott

Timers On : Tue Nov  3 11:51:58 2020
Timers Off: Tue Nov  3 11:53:05 2020

Wall Time:       67.05 seconds

                                                       Time (seconds)
Module                                       User      System        Wall        Calls

--------------------------------------------------------------------------------------

**************************************************************************************

Host: adabbott

Timers On : Tue Nov  3 11:53:53 2020
Timers Off: Tue Nov  3 11:53:54 2020

Wall Time:        0.80 seconds

                                                       Time (seconds)
Module                                       User      System        Wall        Calls

--------------------------------------------------------------------------------------

**************************************************************************************

Host: adabbott

Timers On : Tue Nov  3 11:54:56 2020
Timers Off: Tue Nov  3 11:54:57 2020

Wall Time:        0.81 seconds

                                                       Time (seconds)
Module                                       User      System        Wall        Calls

--------------------------------------------------------------------------------------

**************************************************************************************

Host: adabbott

Timers On : Tue Nov  3 11:58:09 2020
Timers Off: Tue Nov  3 11:58:10 2020

Wall Time:        0.81 seconds

                                                       Time (seconds)
Module                                       User      System        Wall        Calls

--------------------------------------------------------------------------------------

**************************************************************************************

Host: adabbott

Timers On : Tue Nov  3 12:00:26 2020
Timers Off: Tue Nov  3 12:00:27 2020

Wall Time:        0.80 seconds

                                                       Time (seconds)
Module                                       User      System        Wall        Calls

--------------------------------------------------------------------------------------

**************************************************************************************

Host: adabbott

Timers On : Tue Nov  3 12:01:56 2020
Timers Off: Tue Nov  3 12:01:57 2020

Wall Time:        0.82 seconds

                                                       Time (seconds)
Module                                       User      System        Wall        Calls

--------------------------------------------------------------------------------------

**************************************************************************************

Host: adabbott

Timers On : Tue Nov  3 13:18:37 2020
Timers Off: Tue Nov  3 13:18:38 2020

Wall Time:        0.80 seconds

                                                       Time (seconds)
Module                                       User      System        Wall        Calls

--------------------------------------------------------------------------------------

**************************************************************************************

Host: adabbott

Timers On : Tue Nov  3 13:18:49 2020
Timers Off: Tue Nov  3 13:18:50 2020

Wall Time:        0.35 seconds

                                                       Time (seconds)
Module                                       User      System        Wall        Calls

--------------------------------------------------------------------------------------

**************************************************************************************

Host: adabbott

Timers On : Tue Nov  3 13:19:01 2020
Timers Off: Tue Nov  3 13:19:32 2020

Wall Time:       31.64 seconds

                                                       Time (seconds)
Module                                       User      System        Wall        Calls

--------------------------------------------------------------------------------------

**************************************************************************************

Host: adabbott

Timers On : Tue Nov  3 13:25:12 2020
Timers Off: Tue Nov  3 13:25:44 2020

Wall Time:       31.75 seconds

                                                       Time (seconds)
Module                                       User      System        Wall        Calls

--------------------------------------------------------------------------------------

**************************************************************************************

Host: adabbott

Timers On : Tue Nov  3 13:26:49 2020
Timers Off: Tue Nov  3 13:27:58 2020

Wall Time:       68.74 seconds

                                                       Time (seconds)
Module                                       User      System        Wall        Calls

--------------------------------------------------------------------------------------

**************************************************************************************

Host: adabbott

Timers On : Tue Nov  3 13:32:03 2020
Timers Off: Tue Nov  3 13:33:16 2020

Wall Time:       72.84 seconds

                                                       Time (seconds)
Module                                       User      System        Wall        Calls

--------------------------------------------------------------------------------------

**************************************************************************************

Host: adabbott

Timers On : Tue Nov  3 13:48:06 2020
Timers Off: Tue Nov  3 13:48:07 2020

Wall Time:        0.35 seconds

                                                       Time (seconds)
Module                                       User      System        Wall        Calls

--------------------------------------------------------------------------------------

**************************************************************************************

Host: adabbott

Timers On : Tue Nov  3 13:48:32 2020
Timers Off: Tue Nov  3 13:48:32 2020

Wall Time:        0.34 seconds

                                                       Time (seconds)
Module                                       User      System        Wall        Calls

--------------------------------------------------------------------------------------

**************************************************************************************

Host: adabbott

Timers On : Tue Nov  3 13:50:51 2020
Timers Off: Tue Nov  3 13:50:51 2020

Wall Time:        0.34 seconds

                                                       Time (seconds)
Module                                       User      System        Wall        Calls

--------------------------------------------------------------------------------------

**************************************************************************************

Host: adabbott

Timers On : Tue Nov  3 13:53:55 2020
Timers Off: Tue Nov  3 13:53:55 2020

Wall Time:        0.34 seconds

                                                       Time (seconds)
Module                                       User      System        Wall        Calls

--------------------------------------------------------------------------------------

**************************************************************************************

Host: adabbott

Timers On : Tue Nov  3 13:56:20 2020
Timers Off: Tue Nov  3 13:56:20 2020

Wall Time:        0.34 seconds

                                                       Time (seconds)
Module                                       User      System        Wall        Calls

--------------------------------------------------------------------------------------

**************************************************************************************

Host: adabbott

Timers On : Tue Nov  3 14:07:05 2020
Timers Off: Tue Nov  3 14:07:05 2020

Wall Time:        0.34 seconds

                                                       Time (seconds)
Module                                       User      System        Wall        Calls

--------------------------------------------------------------------------------------

**************************************************************************************

Host: adabbott

Timers On : Tue Nov  3 14:09:30 2020
Timers Off: Tue Nov  3 14:09:31 2020

Wall Time:        0.34 seconds

                                                       Time (seconds)
Module                                       User      System        Wall        Calls

--------------------------------------------------------------------------------------

**************************************************************************************

Host: adabbott

Timers On : Tue Nov  3 14:10:46 2020
Timers Off: Tue Nov  3 14:10:47 2020

Wall Time:        0.34 seconds

                                                       Time (seconds)
Module                                       User      System        Wall        Calls

--------------------------------------------------------------------------------------

**************************************************************************************

Host: adabbott

Timers On : Tue Nov  3 14:11:49 2020
Timers Off: Tue Nov  3 14:11:49 2020

Wall Time:        0.28 seconds

                                                       Time (seconds)
Module                                       User      System        Wall        Calls

--------------------------------------------------------------------------------------

**************************************************************************************

Host: adabbott

Timers On : Tue Nov  3 14:34:46 2020
Timers Off: Tue Nov  3 14:34:46 2020

Wall Time:        0.40 seconds

                                                       Time (seconds)
Module                                       User      System        Wall        Calls

--------------------------------------------------------------------------------------

**************************************************************************************

Host: adabbott

Timers On : Tue Nov  3 14:35:06 2020
Timers Off: Tue Nov  3 14:35:06 2020

Wall Time:        0.29 seconds

                                                       Time (seconds)
Module                                       User      System        Wall        Calls

--------------------------------------------------------------------------------------

**************************************************************************************

Host: adabbott

[...]

                                                       Time (seconds)
Module                                       User      System        Wall        Calls

--------------------------------------------------------------------------------------

**************************************************************************************

Host: adabbott

Timers On : Tue Nov  3 14:42:23 2020
Timers Off: Tue Nov  3 14:42:23 2020

Wall Time:        0.36 seconds

                                                       Time (seconds)
Module                                       User      System        Wall        Calls

--------------------------------------------------------------------------------------

**************************************************************************************

Host: adabbott

Timers On : Tue Nov  3 14:46:14 2020
Timers Off: Tue Nov  3 14:46:14 2020

Wall Time:        0.36 seconds

                                                       Time (seconds)
Module                                       User      System        Wall        Calls

--------------------------------------------------------------------------------------

**************************************************************************************

Host: adabbott

Timers On : Tue Nov  3 14:49:03 2020
Timers Off: Tue Nov  3 14:49:03 2020

Wall Time:        0.38 seconds

                                                       Time (seconds)
Module                                       User      System        Wall        Calls

--------------------------------------------------------------------------------------

**************************************************************************************

Host: adabbott

Timers On : Tue Nov  3 14:53:35 2020
Timers Off: Tue Nov  3 14:53:35 2020

Wall Time:        0.36 seconds

                                                       Time (seconds)
Module                                       User      System        Wall        Calls

--------------------------------------------------------------------------------------

**************************************************************************************

Host: adabbott

Timers On : Tue Nov  3 14:53:41 2020
Timers Off: Tue Nov  3 14:53:41 2020

Wall Time:        0.31 seconds

                                                       Time (seconds)
Module                                       User      System        Wall        Calls

--------------------------------------------------------------------------------------

**************************************************************************************

Host: adabbott

Timers On : Tue Nov  3 14:57:50 2020
Timers Off: Tue Nov  3 14:57:50 2020

Wall Time:        0.39 seconds

                                                       Time (seconds)
Module                                       User      System        Wall        Calls

--------------------------------------------------------------------------------------

**************************************************************************************

Host: adabbott

Timers On : Tue Nov  3 14:57:59 2020
Timers Off: Tue Nov  3 14:57:59 2020

Wall Time:        0.29 seconds

                                                       Time (seconds)
Module                                       User      System        Wall        Calls

--------------------------------------------------------------------------------------

**************************************************************************************

Host: adabbott

Timers On : Tue Nov  3 15:02:17 2020
Timers Off: Tue Nov  3 15:02:18 2020

Wall Time:        0.29 seconds

                                                       Time (seconds)
Module                                       User      System        Wall        Calls

--------------------------------------------------------------------------------------

**************************************************************************************

Host: adabbott

Timers On : Tue Nov  3 15:07:03 2020
Timers Off: Tue Nov  3 15:07:03 2020

Wall Time:        0.30 seconds

                                                       Time (seconds)
Module                                       User      System        Wall        Calls

--------------------------------------------------------------------------------------

**************************************************************************************

Host: adabbott

Timers On : Wed Nov  4 11:03:18 2020
Timers Off: Wed Nov  4 11:03:19 2020

Wall Time:        0.34 seconds

                                                       Time (seconds)
Module                                       User      System        Wall        Calls

--------------------------------------------------------------------------------------

**************************************************************************************

Host: adabbott

Timers On : Wed Nov  4 11:05:55 2020
Timers Off: Wed Nov  4 11:05:55 2020

Wall Time:        0.33 seconds

                                                       Time (seconds)
Module                                       User      System        Wall        Calls

--------------------------------------------------------------------------------------

**************************************************************************************

Host: adabbott

Timers On : Wed Nov  4 11:08:55 2020
Timers Off: Wed Nov  4 11:08:56 2020

Wall Time:        0.34 seconds

                                                       Time (seconds)
Module                                       User      System        Wall        Calls

--------------------------------------------------------------------------------------

**************************************************************************************

Host: adabbott

Timers On : Wed Nov  4 11:10:19 2020
Timers Off: Wed Nov  4 11:10:20 2020

Wall Time:        0.34 seconds

                                                       Time (seconds)
Module                                       User      System        Wall        Calls

--------------------------------------------------------------------------------------

**************************************************************************************

Host: adabbott

Timers On : Wed Nov  4 11:10:47 2020
Timers Off: Wed Nov  4 11:11:51 2020

Wall Time:       64.11 seconds

                                                       Time (seconds)
Module                                       User      System        Wall        Calls

--------------------------------------------------------------------------------------

**************************************************************************************

Host: adabbott

Timers On : Wed Nov  4 11:15:17 2020
Timers Off: Wed Nov  4 11:16:27 2020

Wall Time:       69.36 seconds

                                                       Time (seconds)
Module                                       User      System        Wall        Calls

--------------------------------------------------------------------------------------

**************************************************************************************

Host: adabbott

Timers On : Wed Nov  4 11:16:46 2020
Timers Off: Wed Nov  4 11:18:08 2020

Wall Time:       82.09 seconds

                                                       Time (seconds)
Module                                       User      System        Wall        Calls

--------------------------------------------------------------------------------------

**************************************************************************************

Host: adabbott

Timers On : Wed Nov  4 11:30:11 2020
Timers Off: Wed Nov  4 11:30:11 2020

Wall Time:        0.65 seconds

                                                       Time (seconds)
Module                                       User      System        Wall        Calls

--------------------------------------------------------------------------------------

**************************************************************************************

Host: adabbott

Timers On : Wed Nov  4 11:30:46 2020
Timers Off: Wed Nov  4 11:30:47 2020

Wall Time:        0.69 seconds

                                                       Time (seconds)
Module                                       User      System        Wall        Calls

--------------------------------------------------------------------------------------

**************************************************************************************

Host: adabbott

Timers On : Wed Nov  4 11:31:05 2020
Timers Off: Wed Nov  4 11:31:06 2020

Wall Time:        0.69 seconds

                                                       Time (seconds)
Module                                       User      System        Wall        Calls

--------------------------------------------------------------------------------------

**************************************************************************************

Host: adabbott

Timers On : Wed Nov  4 11:32:01 2020
Timers Off: Wed Nov  4 11:32:02 2020

Wall Time:        0.70 seconds

                                                       Time (seconds)
Module                                       User      System        Wall        Calls

--------------------------------------------------------------------------------------

**************************************************************************************

Host: adabbott

Timers On : Wed Nov  4 11:32:14 2020
Timers Off: Wed Nov  4 11:32:15 2020

Wall Time:        0.70 seconds

                                                       Time (seconds)
Module                                       User      System        Wall        Calls

--------------------------------------------------------------------------------------

**************************************************************************************

Host: adabbott

Timers On : Wed Nov  4 11:32:48 2020
Timers Off: Wed Nov  4 11:32:49 2020

Wall Time:        0.70 seconds

                                                       Time (seconds)
Module                                       User      System        Wall        Calls

--------------------------------------------------------------------------------------

**************************************************************************************

Host: adabbott

Timers On : Wed Nov  4 11:33:12 2020
Timers Off: Wed Nov  4 11:33:29 2020

Wall Time:       16.88 seconds

                                                       Time (seconds)
Module                                       User      System        Wall        Calls

--------------------------------------------------------------------------------------

**************************************************************************************

Host: adabbott

Timers On : Wed Nov  4 11:34:11 2020
Timers Off: Wed Nov  4 11:34:28 2020

Wall Time:       17.29 seconds

                                                       Time (seconds)
Module                                       User      System        Wall        Calls

--------------------------------------------------------------------------------------

**************************************************************************************

Host: adabbott

Timers On : Wed Nov  4 11:41:16 2020
Timers Off: Wed Nov  4 11:41:33 2020

Wall Time:       17.37 seconds

                                                       Time (seconds)
Module                                       User      System        Wall        Calls

--------------------------------------------------------------------------------------

**************************************************************************************

Host: adabbott

Timers On : Wed Nov  4 11:42:50 2020
Timers Off: Wed Nov  4 11:43:41 2020

Wall Time:       51.45 seconds

                                                       Time (seconds)
Module                                       User      System        Wall        Calls

--------------------------------------------------------------------------------------

**************************************************************************************

Host: adabbott

Timers On : Wed Nov  4 11:46:58 2020
Timers Off: Wed Nov  4 11:48:37 2020

Wall Time:       99.17 seconds

                                                       Time (seconds)
Module                                       User      System        Wall        Calls

--------------------------------------------------------------------------------------

**************************************************************************************

Host: adabbott

Timers On : Wed Nov  4 11:48:57 2020
Timers Off: Wed Nov  4 11:50:44 2020

Wall Time:      106.53 seconds

                                                       Time (seconds)
Module                                       User      System        Wall        Calls

--------------------------------------------------------------------------------------

**************************************************************************************

Host: adabbott

Timers On : Wed Nov  4 11:53:14 2020
Timers Off: Wed Nov  4 11:53:15 2020

Wall Time:        1.65 seconds

                                                       Time (seconds)
Module                                       User      System        Wall        Calls

--------------------------------------------------------------------------------------

**************************************************************************************

Host: adabbott

Timers On : Wed Nov  4 11:54:38 2020
Timers Off: Wed Nov  4 11:54:39 2020

Wall Time:        0.79 seconds

                                                       Time (seconds)
Module                                       User      System        Wall        Calls

--------------------------------------------------------------------------------------

**************************************************************************************

Host: adabbott

Timers On : Wed Nov  4 12:04:18 2020
Timers Off: Wed Nov  4 12:04:23 2020

Wall Time:        4.87 seconds

                                                       Time (seconds)
Module                                       User      System        Wall        Calls

--------------------------------------------------------------------------------------

**************************************************************************************

Host: adabbott

Timers On : Wed Nov  4 12:04:35 2020
Timers Off: Wed Nov  4 12:06:27 2020

Wall Time:      112.10 seconds

                                                       Time (seconds)
Module                                       User      System        Wall        Calls

--------------------------------------------------------------------------------------

**************************************************************************************

Host: adabbott

Timers On : Wed Nov  4 12:06:48 2020
Timers Off: Wed Nov  4 12:11:21 2020

Wall Time:      273.18 seconds

                                                       Time (seconds)
Module                                       User      System        Wall        Calls

--------------------------------------------------------------------------------------

**************************************************************************************

Host: adabbott

Timers On : Wed Nov  4 12:25:53 2020
Timers Off: Wed Nov  4 12:30:29 2020

Wall Time:      275.12 seconds

                                                       Time (seconds)
Module                                       User      System        Wall        Calls

--------------------------------------------------------------------------------------

**************************************************************************************

Host: adabbott

Timers On : Wed Nov  4 13:17:30 2020
Timers Off: Wed Nov  4 13:17:30 2020

Wall Time:        0.64 seconds

                                                       Time (seconds)
Module                                       User      System        Wall        Calls

--------------------------------------------------------------------------------------

**************************************************************************************

Host: adabbott

Timers On : Wed Nov  4 13:17:57 2020
Timers Off: Wed Nov  4 13:17:58 2020

Wall Time:        0.72 seconds

                                                       Time (seconds)
Module                                       User      System        Wall        Calls

--------------------------------------------------------------------------------------

**************************************************************************************

Host: adabbott

Timers On : Wed Nov  4 13:22:06 2020
Timers Off: Wed Nov  4 13:22:07 2020

Wall Time:        0.73 seconds

                                                       Time (seconds)
Module                                       User      System        Wall        Calls

--------------------------------------------------------------------------------------

**************************************************************************************

Host: adabbott

Timers On : Wed Nov  4 13:23:34 2020
Timers Off: Wed Nov  4 13:23:35 2020

Wall Time:        0.70 seconds

                                                       Time (seconds)
Module                                       User      System        Wall        Calls

--------------------------------------------------------------------------------------

**************************************************************************************

Host: adabbott

Timers On : Wed Nov  4 13:24:48 2020
Timers Off: Wed Nov  4 13:24:49 2020

Wall Time:        0.70 seconds

                                                       Time (seconds)
Module                                       User      System        Wall        Calls

--------------------------------------------------------------------------------------

**************************************************************************************

Host: adabbott

Timers On : Wed Nov  4 13:37:04 2020
Timers Off: Wed Nov  4 13:37:05 2020

Wall Time:        0.76 seconds

                                                       Time (seconds)
Module                                       User      System        Wall        Calls

--------------------------------------------------------------------------------------

**************************************************************************************

Host: adabbott

Timers On : Wed Nov  4 13:42:21 2020
Timers Off: Wed Nov  4 13:42:21 2020

Wall Time:        0.73 seconds

                                                       Time (seconds)
Module                                       User      System        Wall        Calls

--------------------------------------------------------------------------------------

**************************************************************************************

Host: adabbott

Timers On : Wed Nov  4 13:43:14 2020
Timers Off: Wed Nov  4 13:43:14 2020

Wall Time:        0.75 seconds

                                                       Time (seconds)
Module                                       User      System        Wall        Calls

--------------------------------------------------------------------------------------

**************************************************************************************

Host: adabbott

Timers On : Wed Nov  4 13:46:27 2020
Timers Off: Wed Nov  4 13:46:28 2020

Wall Time:        0.77 seconds

                                                       Time (seconds)
Module                                       User      System        Wall        Calls

--------------------------------------------------------------------------------------

**************************************************************************************
