
Host: adabbott

Timers On : Wed Feb 17 12:39:18 2021
Timers Off: Wed Feb 17 12:39:28 2021

Wall Time:       10.75 seconds

                                                       Time (seconds)
Module                                       User      System        Wall        Calls

--------------------------------------------------------------------------------------

**************************************************************************************

Host: adabbott

Timers On : Wed Feb 17 12:42:00 2021
Timers Off: Wed Feb 17 12:42:27 2021

Wall Time:       27.55 seconds

                                                       Time (seconds)
Module                                       User      System        Wall        Calls

--------------------------------------------------------------------------------------

**************************************************************************************

Host: adabbott

Timers On : Wed Feb 17 12:45:38 2021
Timers Off: Wed Feb 17 12:49:10 2021

Wall Time:      211.80 seconds

                                                       Time (seconds)
Module                                       User      System        Wall        Calls

--------------------------------------------------------------------------------------

**************************************************************************************

Host: adabbott

Timers On : Wed Feb 17 12:53:58 2021
Timers Off: Wed Feb 17 12:57:40 2021

Wall Time:      221.42 seconds

                                                       Time (seconds)
Module                                       User      System        Wall        Calls

--------------------------------------------------------------------------------------

**************************************************************************************

Host: adabbott

Timers On : Wed Feb 17 12:59:00 2021
Timers Off: Wed Feb 17 12:59:11 2021

Wall Time:       11.07 seconds

                                                       Time (seconds)
Module                                       User      System        Wall        Calls

--------------------------------------------------------------------------------------

**************************************************************************************

Host: adabbott

Timers On : Wed Feb 17 13:00:25 2021
Timers Off: Wed Feb 17 13:00:36 2021

Wall Time:       11.23 seconds

                                                       Time (seconds)
Module                                       User      System        Wall        Calls

--------------------------------------------------------------------------------------

**************************************************************************************
