
    -----------------------------------------------------------------------
          Psi4: An Open-Source Ab Initio Electronic Structure Package
                               Psi4 1.3.2 release

                         Git: Rev {HEAD} ecbda83 


    R. M. Parrish, L. A. Burns, D. G. A. Smith, A. C. Simmonett,
    A. E. DePrince III, E. G. Hohenstein, U. Bozkaya, A. Yu. Sokolov,
    R. Di Remigio, R. M. Richard, J. F. Gonthier, A. M. James,
    H. R. McAlexander, A. Kumar, M. Saitow, X. Wang, B. P. Pritchard,
    P. Verma, H. F. Schaefer III, K. Patkowski, R. A. King, E. F. Valeev,
    F. A. Evangelista, J. M. Turney, T. D. Crawford, and C. D. Sherrill,
    J. Chem. Theory Comput. 13(7) pp 3185--3197 (2017).
    (doi: 10.1021/acs.jctc.7b00174)


                         Additional Contributions by
    P. Kraus, H. Kruse, M. H. Lechner, M. C. Schieber, R. A. Shaw,
    A. Alenaizan, R. Galvelis, Z. L. Glick, S. Lehtola, and J. P. Misiewicz

    -----------------------------------------------------------------------


    Psi4 started on: Monday, 22 July 2019 01:03PM

    Process ID: 18531
    Host:       adabbott
    PSIDATADIR: /home/adabbott/anaconda3/envs/peslearn/share/psi4
    Memory:     500.0 MiB
    Threads:    1
    
  ==> Input File <==

--------------------------------------------------------------------------
# density fitted hartree fock 
molecule h2o {
0 1
H 0.0000000000 0.0000000000 1.0000000000
H 0.0000000000 0.9029125051 -0.3894784366
O 0.0000000000 0.0000000000 0.0000000000
}

set scf_type pk
set basis 6-31g
gradient('hf')

--------------------------------------------------------------------------
gradient() will perform analytic gradient computation.

*** tstart() called on adabbott
*** at Mon Jul 22 13:03:22 2019

   => Loading Basis Set <=

    Name: 6-31G
    Role: ORBITAL
    Keyword: BASIS
    atoms 1-2 entry H          line    26 file /home/adabbott/anaconda3/envs/peslearn/share/psi4/basis/6-31g.gbs 
    atoms 3   entry O          line   117 file /home/adabbott/anaconda3/envs/peslearn/share/psi4/basis/6-31g.gbs 


         ---------------------------------------------------------
                                   SCF
               by Justin Turney, Rob Parrish, Andy Simmonett
                          and Daniel G. A. Smith
                              RHF Reference
                        1 Threads,    500 MiB Core
         ---------------------------------------------------------

  ==> Geometry <==

    Molecular point group: cs
    Full point group: Cs

    Geometry (in Angstrom), charge = 0, multiplicity = 1:

       Center              X                  Y                   Z               Mass       
    ------------   -----------------  -----------------  -----------------  -----------------
         H            0.050524669299    -0.965836778296     0.000000000000     1.007825032230
         H           -0.852387835801     0.423641658304     0.000000000000     1.007825032230
         O            0.050524669299     0.034163221704     0.000000000000    15.994914619570

  Running in cs symmetry.

  Rotational constants: A =     31.72569  B =     12.18052  C =      8.80138 [cm^-1]
  Rotational constants: A = 951112.26762  B = 365162.69241  C = 263858.78861 [MHz]
  Nuclear repulsion =    8.857932146087652

  Charge       = 0
  Multiplicity = 1
  Electrons    = 10
  Nalpha       = 5
  Nbeta        = 5

  ==> Algorithm <==

  SCF Algorithm Type is PK.
  DIIS enabled.
  MOM disabled.
  Fractional occupation disabled.
  Guess Type is SAD.
  Energy threshold   = 1.00e-08
  Density threshold  = 1.00e-08
  Integral threshold = 0.00e+00

  ==> Primary Basis <==

  Basis Set: 6-31G
    Blend: 6-31G
    Number of shells: 9
    Number of basis function: 13
    Number of Cartesian functions: 13
    Spherical Harmonics?: false
    Max angular momentum: 1

  ==> Pre-Iterations <==

   -------------------------------------------------------
    Irrep   Nso     Nmo     Nalpha   Nbeta   Ndocc  Nsocc
   -------------------------------------------------------
     A'        11      11       0       0       0       0
     A"         2       2       0       0       0       0
   -------------------------------------------------------
    Total      13      13       5       5       5       0
   -------------------------------------------------------

  ==> Integral Setup <==

  Using in-core PK algorithm.
   Calculation information:
      Number of atoms:                   3
      Number of AO shells:               9
      Number of primitives:             22
      Number of atomic orbitals:        13
      Number of basis functions:        13

      Integral cutoff                 1.00e-12
      Number of threads:                 1

  Performing in-core PK
  Using 8372 doubles for integral storage.
  We computed 1035 shell quartets total.
  Whereas there are 1035 unique shell quartets.

  ==> DiskJK: Disk-Based J/K Matrices <==

    J tasked:                  Yes
    K tasked:                  Yes
    wK tasked:                  No
    Memory [MiB]:              375
    Schwarz Cutoff:          1E-12

    OpenMP threads:              1

  Minimum eigenvalue in the overlap matrix is 7.5026779984E-02.
  Using Symmetric Orthogonalization.

  SCF Guess: Superposition of Atomic Densities via on-the-fly atomic UHF.

  ==> Iterations <==

                        Total Energy        Delta E     RMS |[F,P]|

   @RHF iter SAD:   -75.46335492109020   -7.54634e+01   0.00000e+00 
   @RHF iter   1:   -75.90949769316620   -4.46143e-01   3.57798e-02 DIIS
   @RHF iter   2:   -75.96126958004845   -5.17719e-02   2.14753e-02 DIIS
   @RHF iter   3:   -75.98123504200281   -1.99655e-02   1.78540e-03 DIIS
   @RHF iter   4:   -75.98161551655923   -3.80475e-04   3.54032e-04 DIIS
   @RHF iter   5:   -75.98163174693299   -1.62304e-05   5.44417e-05 DIIS
   @RHF iter   6:   -75.98163231284904   -5.65916e-07   1.32040e-05 DIIS
   @RHF iter   7:   -75.98163234878825   -3.59392e-08   2.32048e-06 DIIS
   @RHF iter   8:   -75.98163234977493   -9.86674e-10   3.47938e-07 DIIS
   @RHF iter   9:   -75.98163234978730   -1.23777e-11   3.48537e-08 DIIS
   @RHF iter  10:   -75.98163234978756   -2.55795e-13   3.51898e-09 DIIS
  Energy and wave function converged.


  ==> Post-Iterations <==

    Orbital Energies [Eh]
    ---------------------

    Doubly Occupied:                                                      

       1Ap   -20.559878     2Ap    -1.329395     3Ap    -0.704482  
       4Ap    -0.538714     1App   -0.494773  

    Virtual:                                                              

       5Ap     0.195913     6Ap     0.292461     7Ap     1.089860  
       8Ap     1.104671     2App    1.168223     9Ap     1.209750  
      10Ap     1.383968    11Ap     1.667162  

    Final Occupation by Irrep:
             Ap   App 
    DOCC [     4,    1 ]

  @RHF Final Energy:   -75.98163234978756

   => Energetics <=

    Nuclear Repulsion Energy =              8.8579321460876521
    One-Electron Energy =                -122.4246444695971547
    Two-Electron Energy =                  37.5850799737219532
    Total Energy =                        -75.9816323497875601

Computation Completed


Properties will be evaluated at   0.000000,   0.000000,   0.000000 [a0]

Properties computed using the SCF density matrix

  Nuclear Dipole Moment: [e a0]
     X:    -0.7515      Y:    -0.5081      Z:     0.0000

  Electronic Dipole Moment: [e a0]
     X:    -0.0619      Y:    -0.0322      Z:     0.0000

  Dipole Moment: [e a0]
     X:    -0.8134      Y:    -0.5403      Z:     0.0000     Total:     0.9765

  Dipole Moment: [D]
     X:    -2.0675      Y:    -1.3733      Z:     0.0000     Total:     2.4820


*** tstop() called on adabbott at Mon Jul 22 13:03:22 2019
Module time:
	user time   =       0.30 seconds =       0.01 minutes
	system time =       0.00 seconds =       0.00 minutes
	total time  =          0 seconds =       0.00 minutes
Total time:
	user time   =       0.30 seconds =       0.01 minutes
	system time =       0.00 seconds =       0.00 minutes
	total time  =          0 seconds =       0.00 minutes

*** tstart() called on adabbott
*** at Mon Jul 22 13:03:22 2019


         ------------------------------------------------------------
                                   SCF GRAD                          
                          Rob Parrish, Justin Turney,                
                       Andy Simmonett, and Alex Sokolov              
         ------------------------------------------------------------

  ==> Geometry <==

    Molecular point group: cs
    Full point group: Cs

    Geometry (in Angstrom), charge = 0, multiplicity = 1:

       Center              X                  Y                   Z               Mass       
    ------------   -----------------  -----------------  -----------------  -----------------
         H            0.050524669299    -0.965836778296     0.000000000000     1.007825032230
         H           -0.852387835801     0.423641658304     0.000000000000     1.007825032230
         O            0.050524669299     0.034163221704     0.000000000000    15.994914619570

  Nuclear repulsion =    8.857932146087652

  ==> Basis Set <==

  Basis Set: 6-31G
    Blend: 6-31G
    Number of shells: 9
    Number of basis function: 13
    Number of Cartesian functions: 13
    Spherical Harmonics?: false
    Max angular momentum: 1

  ==> DirectJKGrad: Integral-Direct SCF Gradients <==

    Gradient:                    1
    J tasked:                  Yes
    K tasked:                  Yes
    wK tasked:                  No
    Integrals threads:           1
    Schwarz Cutoff:          0E+00


  -Total Gradient:
     Atom            X                  Y                   Z
    ------   -----------------  -----------------  -----------------
       1        0.005902953162    -0.048125639143     0.000000000000
       2       -0.028756322846     0.018941946105     0.000000000000
       3        0.022853369684     0.029183693038     0.000000000000


*** tstop() called on adabbott at Mon Jul 22 13:03:22 2019
Module time:
	user time   =       0.04 seconds =       0.00 minutes
	system time =       0.00 seconds =       0.00 minutes
	total time  =          0 seconds =       0.00 minutes
Total time:
	user time   =       0.34 seconds =       0.01 minutes
	system time =       0.00 seconds =       0.00 minutes
	total time  =          0 seconds =       0.00 minutes

    Psi4 stopped on: Monday, 22 July 2019 01:03PM
    Psi4 wall time for execution: 0:00:00.36

*** Psi4 exiting successfully. Buy a developer a beer!
