
Host: adabbott

Timers On : Mon Dec  7 14:25:54 2020
Timers Off: Mon Dec  7 14:29:12 2020

Wall Time:      198.54 seconds

                                                       Time (seconds)
Module                                       User      System        Wall        Calls

--------------------------------------------------------------------------------------

**************************************************************************************

Host: adabbott

Timers On : Mon Dec  7 14:32:22 2020
Timers Off: Mon Dec  7 14:32:23 2020

Wall Time:        0.79 seconds

                                                       Time (seconds)
Module                                       User      System        Wall        Calls

--------------------------------------------------------------------------------------

**************************************************************************************

Host: adabbott

Timers On : Mon Dec  7 14:32:49 2020
Timers Off: Mon Dec  7 14:32:57 2020

Wall Time:        7.94 seconds

                                                       Time (seconds)
Module                                       User      System        Wall        Calls

--------------------------------------------------------------------------------------

**************************************************************************************

Host: adabbott

Timers On : Mon Dec  7 14:47:28 2020
Timers Off: Mon Dec  7 14:47:29 2020

Wall Time:        0.78 seconds

                                                       Time (seconds)
Module                                       User      System        Wall        Calls

--------------------------------------------------------------------------------------

**************************************************************************************

Host: adabbott

Timers On : Mon Dec  7 14:48:24 2020
Timers Off: Mon Dec  7 14:48:25 2020

Wall Time:        0.78 seconds

                                                       Time (seconds)
Module                                       User      System        Wall        Calls

--------------------------------------------------------------------------------------

**************************************************************************************

Host: adabbott

Timers On : Mon Dec  7 14:37:49 2020
Timers Off: Mon Dec  7 14:48:38 2020

Wall Time:      648.44 seconds

                                                       Time (seconds)
Module                                       User      System        Wall        Calls

--------------------------------------------------------------------------------------

**************************************************************************************

Host: adabbott

Timers On : Mon Dec  7 14:49:58 2020
Timers Off: Mon Dec  7 14:50:21 2020

Wall Time:       23.32 seconds

                                                       Time (seconds)
Module                                       User      System        Wall        Calls

--------------------------------------------------------------------------------------

**************************************************************************************

Host: adabbott

Timers On : Mon Dec  7 14:52:17 2020
Timers Off: Mon Dec  7 14:52:28 2020

Wall Time:       10.97 seconds

                                                       Time (seconds)
Module                                       User      System        Wall        Calls

--------------------------------------------------------------------------------------

**************************************************************************************

Host: adabbott

Timers On : Mon Dec  7 14:52:34 2020
Timers Off: Mon Dec  7 14:52:40 2020

Wall Time:        5.85 seconds

                                                       Time (seconds)
Module                                       User      System        Wall        Calls

--------------------------------------------------------------------------------------

**************************************************************************************

Host: adabbott

Timers On : Mon Dec  7 14:56:49 2020
Timers Off: Mon Dec  7 14:56:53 2020

Wall Time:        3.31 seconds

                                                       Time (seconds)
Module                                       User      System        Wall        Calls

--------------------------------------------------------------------------------------

**************************************************************************************

Host: adabbott

Timers On : Mon Dec  7 14:56:53 2020
Timers Off: Mon Dec  7 14:56:59 2020

Wall Time:        5.72 seconds

                                                       Time (seconds)
Module                                       User      System        Wall        Calls

--------------------------------------------------------------------------------------

**************************************************************************************

Host: adabbott

Timers On : Mon Dec  7 14:56:59 2020
Timers Off: Mon Dec  7 14:57:10 2020

Wall Time:       10.92 seconds

                                                       Time (seconds)
Module                                       User      System        Wall        Calls

--------------------------------------------------------------------------------------

**************************************************************************************

Host: adabbott

Timers On : Mon Dec  7 14:57:10 2020
Timers Off: Mon Dec  7 14:57:34 2020

Wall Time:       23.82 seconds

                                                       Time (seconds)
Module                                       User      System        Wall        Calls

--------------------------------------------------------------------------------------

**************************************************************************************

Host: adabbott

Timers On : Mon Dec  7 14:57:34 2020
Timers Off: Mon Dec  7 14:57:38 2020

Wall Time:        4.68 seconds

                                                       Time (seconds)
Module                                       User      System        Wall        Calls

--------------------------------------------------------------------------------------

**************************************************************************************

Host: adabbott

Timers On : Mon Dec  7 14:57:39 2020
Timers Off: Mon Dec  7 14:57:47 2020

Wall Time:        8.28 seconds

                                                       Time (seconds)
Module                                       User      System        Wall        Calls

--------------------------------------------------------------------------------------

**************************************************************************************

Host: adabbott

Timers On : Mon Dec  7 14:57:47 2020
Timers Off: Mon Dec  7 14:58:02 2020

Wall Time:       15.48 seconds

                                                       Time (seconds)
Module                                       User      System        Wall        Calls

--------------------------------------------------------------------------------------

**************************************************************************************

Host: adabbott

Timers On : Mon Dec  7 14:58:03 2020
Timers Off: Mon Dec  7 14:58:34 2020

Wall Time:       31.65 seconds

                                                       Time (seconds)
Module                                       User      System        Wall        Calls

--------------------------------------------------------------------------------------

**************************************************************************************

Host: adabbott

Timers On : Mon Dec  7 15:01:13 2020
Timers Off: Mon Dec  7 15:01:16 2020

Wall Time:        3.32 seconds

                                                       Time (seconds)
Module                                       User      System        Wall        Calls

--------------------------------------------------------------------------------------

**************************************************************************************

Host: adabbott

Timers On : Mon Dec  7 15:01:16 2020
Timers Off: Mon Dec  7 15:01:22 2020

Wall Time:        5.81 seconds

                                                       Time (seconds)
Module                                       User      System        Wall        Calls

--------------------------------------------------------------------------------------

**************************************************************************************

Host: adabbott

Timers On : Mon Dec  7 15:01:22 2020
Timers Off: Mon Dec  7 15:01:33 2020

Wall Time:       11.03 seconds

                                                       Time (seconds)
Module                                       User      System        Wall        Calls

--------------------------------------------------------------------------------------

**************************************************************************************

Host: adabbott

Timers On : Mon Dec  7 15:01:33 2020
Timers Off: Mon Dec  7 15:01:57 2020

Wall Time:       23.89 seconds

                                                       Time (seconds)
Module                                       User      System        Wall        Calls

--------------------------------------------------------------------------------------

**************************************************************************************

Host: adabbott

Timers On : Mon Dec  7 15:01:58 2020
Timers Off: Mon Dec  7 15:02:02 2020

Wall Time:        4.70 seconds

                                                       Time (seconds)
Module                                       User      System        Wall        Calls

--------------------------------------------------------------------------------------

**************************************************************************************

Host: adabbott

Timers On : Mon Dec  7 15:02:02 2020
Timers Off: Mon Dec  7 15:02:11 2020

Wall Time:        8.25 seconds

                                                       Time (seconds)
Module                                       User      System        Wall        Calls

--------------------------------------------------------------------------------------

**************************************************************************************

Host: adabbott

Timers On : Mon Dec  7 15:02:11 2020
Timers Off: Mon Dec  7 15:02:26 2020

Wall Time:       15.29 seconds

                                                       Time (seconds)
Module                                       User      System        Wall        Calls

--------------------------------------------------------------------------------------

**************************************************************************************

Host: adabbott

Timers On : Mon Dec  7 15:02:26 2020
Timers Off: Mon Dec  7 15:02:59 2020

Wall Time:       32.98 seconds

                                                       Time (seconds)
Module                                       User      System        Wall        Calls

--------------------------------------------------------------------------------------

**************************************************************************************

Host: adabbott

Timers On : Mon Dec  7 15:02:59 2020
Timers Off: Mon Dec  7 15:03:24 2020

Wall Time:       24.67 seconds

                                                       Time (seconds)
Module                                       User      System        Wall        Calls

--------------------------------------------------------------------------------------

**************************************************************************************

Host: adabbott

Timers On : Mon Dec  7 15:03:24 2020
Timers Off: Mon Dec  7 15:04:37 2020

Wall Time:       72.60 seconds

                                                       Time (seconds)
Module                                       User      System        Wall        Calls

--------------------------------------------------------------------------------------

**************************************************************************************

Host: adabbott

Timers On : Mon Dec  7 15:04:37 2020
Timers Off: Mon Dec  7 15:07:56 2020

Wall Time:      198.49 seconds

                                                       Time (seconds)
Module                                       User      System        Wall        Calls

--------------------------------------------------------------------------------------

**************************************************************************************

Host: adabbott

Timers On : Mon Dec  7 15:07:56 2020
Timers Off: Mon Dec  7 15:19:34 2020

Wall Time:      698.07 seconds

                                                       Time (seconds)
Module                                       User      System        Wall        Calls

--------------------------------------------------------------------------------------

**************************************************************************************

Host: adabbott

Timers On : Mon Dec  7 15:21:08 2020
Timers Off: Mon Dec  7 15:21:11 2020

Wall Time:        3.33 seconds

                                                       Time (seconds)
Module                                       User      System        Wall        Calls

--------------------------------------------------------------------------------------

**************************************************************************************

Host: adabbott

Timers On : Mon Dec  7 15:21:11 2020
Timers Off: Mon Dec  7 15:21:17 2020

Wall Time:        5.79 seconds

                                                       Time (seconds)
Module                                       User      System        Wall        Calls

--------------------------------------------------------------------------------------

**************************************************************************************

Host: adabbott

Timers On : Mon Dec  7 15:21:17 2020
Timers Off: Mon Dec  7 15:21:28 2020

Wall Time:       11.02 seconds

                                                       Time (seconds)
Module                                       User      System        Wall        Calls

--------------------------------------------------------------------------------------

**************************************************************************************

Host: adabbott

Timers On : Mon Dec  7 15:21:28 2020
Timers Off: Mon Dec  7 15:21:52 2020

Wall Time:       23.79 seconds

                                                       Time (seconds)
Module                                       User      System        Wall        Calls

--------------------------------------------------------------------------------------

**************************************************************************************

Host: adabbott

Timers On : Mon Dec  7 15:21:52 2020
Timers Off: Mon Dec  7 15:21:57 2020

Wall Time:        4.66 seconds

                                                       Time (seconds)
Module                                       User      System        Wall        Calls

--------------------------------------------------------------------------------------

**************************************************************************************

Host: adabbott

Timers On : Mon Dec  7 15:21:57 2020
Timers Off: Mon Dec  7 15:22:05 2020

Wall Time:        8.28 seconds

                                                       Time (seconds)
Module                                       User      System        Wall        Calls

--------------------------------------------------------------------------------------

**************************************************************************************

Host: adabbott

Timers On : Mon Dec  7 15:22:05 2020
Timers Off: Mon Dec  7 15:22:21 2020

Wall Time:       15.41 seconds

                                                       Time (seconds)
Module                                       User      System        Wall        Calls

--------------------------------------------------------------------------------------

**************************************************************************************

Host: adabbott

Timers On : Mon Dec  7 15:22:21 2020
Timers Off: Mon Dec  7 15:22:53 2020

Wall Time:       31.68 seconds

                                                       Time (seconds)
Module                                       User      System        Wall        Calls

--------------------------------------------------------------------------------------

**************************************************************************************

Host: adabbott

Timers On : Mon Dec  7 15:22:53 2020
Timers Off: Mon Dec  7 15:23:17 2020

Wall Time:       23.84 seconds

                                                       Time (seconds)
Module                                       User      System        Wall        Calls

--------------------------------------------------------------------------------------

**************************************************************************************

Host: adabbott

Timers On : Mon Dec  7 15:23:17 2020
Timers Off: Mon Dec  7 15:24:27 2020

Wall Time:       70.39 seconds

                                                       Time (seconds)
Module                                       User      System        Wall        Calls

--------------------------------------------------------------------------------------

**************************************************************************************

Host: adabbott

Timers On : Mon Dec  7 16:59:56 2020
Timers Off: Mon Dec  7 17:47:30 2020

Wall Time:     2853.99 seconds

                                                       Time (seconds)
Module                                       User      System        Wall        Calls

--------------------------------------------------------------------------------------

**************************************************************************************

Host: adabbott

Timers On : Mon Dec  7 17:47:33 2020
Timers Off: Mon Dec  7 17:47:43 2020

Wall Time:       10.44 seconds

                                                       Time (seconds)
Module                                       User      System        Wall        Calls

--------------------------------------------------------------------------------------

**************************************************************************************

Host: adabbott

Timers On : Mon Dec  7 17:47:43 2020
Timers Off: Mon Dec  7 17:48:05 2020

Wall Time:       21.72 seconds

                                                       Time (seconds)
Module                                       User      System        Wall        Calls

--------------------------------------------------------------------------------------

**************************************************************************************

Host: adabbott

Timers On : Mon Dec  7 17:48:05 2020
Timers Off: Mon Dec  7 17:48:51 2020

Wall Time:       46.27 seconds

                                                       Time (seconds)
Module                                       User      System        Wall        Calls

--------------------------------------------------------------------------------------

**************************************************************************************

Host: adabbott

Timers On : Mon Dec  7 17:48:52 2020
Timers Off: Mon Dec  7 17:50:37 2020

Wall Time:      105.76 seconds

                                                       Time (seconds)
Module                                       User      System        Wall        Calls

--------------------------------------------------------------------------------------

**************************************************************************************

Host: adabbott

Timers On : Mon Dec  7 17:50:38 2020
Timers Off: Mon Dec  7 17:50:50 2020

Wall Time:       12.06 seconds

                                                       Time (seconds)
Module                                       User      System        Wall        Calls

--------------------------------------------------------------------------------------

**************************************************************************************

Host: adabbott

Timers On : Mon Dec  7 17:50:50 2020
Timers Off: Mon Dec  7 17:51:15 2020

Wall Time:       24.90 seconds

                                                       Time (seconds)
Module                                       User      System        Wall        Calls

--------------------------------------------------------------------------------------

**************************************************************************************

Host: adabbott

Timers On : Mon Dec  7 17:51:15 2020
Timers Off: Mon Dec  7 17:52:07 2020

Wall Time:       52.25 seconds

                                                       Time (seconds)
Module                                       User      System        Wall        Calls

--------------------------------------------------------------------------------------

**************************************************************************************

Host: adabbott

Timers On : Mon Dec  7 17:52:07 2020
Timers Off: Mon Dec  7 17:54:05 2020

Wall Time:      117.51 seconds

                                                       Time (seconds)
Module                                       User      System        Wall        Calls

--------------------------------------------------------------------------------------

**************************************************************************************

Host: adabbott

Timers On : Mon Dec  7 17:54:05 2020
Timers Off: Mon Dec  7 17:54:50 2020

Wall Time:       45.15 seconds

                                                       Time (seconds)
Module                                       User      System        Wall        Calls

--------------------------------------------------------------------------------------

**************************************************************************************

Host: adabbott

Timers On : Mon Dec  7 17:54:50 2020
Timers Off: Mon Dec  7 17:56:45 2020

Wall Time:      115.13 seconds

                                                       Time (seconds)
Module                                       User      System        Wall        Calls

--------------------------------------------------------------------------------------

**************************************************************************************

Host: adabbott

Timers On : Mon Dec  7 17:56:46 2020
Timers Off: Mon Dec  7 18:02:43 2020

Wall Time:      357.68 seconds

                                                       Time (seconds)
Module                                       User      System        Wall        Calls

--------------------------------------------------------------------------------------

**************************************************************************************

Host: adabbott

Timers On : Mon Dec  7 18:02:44 2020
Timers Off: Mon Dec  7 18:23:56 2020

Wall Time:     1271.92 seconds

                                                       Time (seconds)
Module                                       User      System        Wall        Calls

--------------------------------------------------------------------------------------

**************************************************************************************

Host: adabbott

Timers On : Tue Dec  8 16:19:31 2020
Timers Off: Tue Dec  8 16:19:42 2020

Wall Time:       11.08 seconds

                                                       Time (seconds)
Module                                       User      System        Wall        Calls

--------------------------------------------------------------------------------------

**************************************************************************************

Host: adabbott

Timers On : Tue Dec  8 16:19:42 2020
Timers Off: Tue Dec  8 16:20:02 2020

Wall Time:       20.54 seconds

                                                       Time (seconds)
Module                                       User      System        Wall        Calls

--------------------------------------------------------------------------------------

**************************************************************************************

Host: adabbott

Timers On : Tue Dec  8 16:20:03 2020
Timers Off: Tue Dec  8 16:20:44 2020

Wall Time:       41.68 seconds

                                                       Time (seconds)
Module                                       User      System        Wall        Calls

--------------------------------------------------------------------------------------

**************************************************************************************

Host: adabbott

Timers On : Tue Dec  8 16:20:45 2020
Timers Off: Tue Dec  8 16:22:18 2020

Wall Time:       93.59 seconds

                                                       Time (seconds)
Module                                       User      System        Wall        Calls

--------------------------------------------------------------------------------------

**************************************************************************************

Host: adabbott

Timers On : Tue Dec  8 16:22:18 2020
Timers Off: Tue Dec  8 16:22:29 2020

Wall Time:       10.89 seconds

                                                       Time (seconds)
Module                                       User      System        Wall        Calls

--------------------------------------------------------------------------------------

**************************************************************************************

Host: adabbott

Timers On : Tue Dec  8 16:22:29 2020
Timers Off: Tue Dec  8 16:22:51 2020

Wall Time:       22.09 seconds

                                                       Time (seconds)
Module                                       User      System        Wall        Calls

--------------------------------------------------------------------------------------

**************************************************************************************

Host: adabbott

Timers On : Tue Dec  8 16:22:52 2020
Timers Off: Tue Dec  8 16:23:43 2020

Wall Time:       51.07 seconds

                                                       Time (seconds)
Module                                       User      System        Wall        Calls

--------------------------------------------------------------------------------------

**************************************************************************************

Host: adabbott

Timers On : Tue Dec  8 16:23:43 2020
Timers Off: Tue Dec  8 16:25:37 2020

Wall Time:      113.64 seconds

                                                       Time (seconds)
Module                                       User      System        Wall        Calls

--------------------------------------------------------------------------------------

**************************************************************************************

Host: adabbott

Timers On : Tue Dec  8 16:25:37 2020
Timers Off: Tue Dec  8 16:26:21 2020

Wall Time:       44.67 seconds

                                                       Time (seconds)
Module                                       User      System        Wall        Calls

--------------------------------------------------------------------------------------

**************************************************************************************

Host: adabbott

Timers On : Tue Dec  8 16:26:22 2020
Timers Off: Tue Dec  8 16:28:21 2020

Wall Time:      119.16 seconds

                                                       Time (seconds)
Module                                       User      System        Wall        Calls

--------------------------------------------------------------------------------------

**************************************************************************************

Host: adabbott

Timers On : Tue Dec  8 16:28:21 2020
Timers Off: Tue Dec  8 16:34:17 2020

Wall Time:      356.00 seconds

                                                       Time (seconds)
Module                                       User      System        Wall        Calls

--------------------------------------------------------------------------------------

**************************************************************************************

Host: adabbott

Timers On : Tue Dec  8 16:34:18 2020
Timers Off: Tue Dec  8 16:55:21 2020

Wall Time:     1263.26 seconds

                                                       Time (seconds)
Module                                       User      System        Wall        Calls

--------------------------------------------------------------------------------------

**************************************************************************************

Host: adabbott

Timers On : Wed Dec  9 13:31:43 2020
Timers Off: Wed Dec  9 13:31:53 2020

Wall Time:        9.40 seconds

                                                       Time (seconds)
Module                                       User      System        Wall        Calls

--------------------------------------------------------------------------------------

**************************************************************************************

Host: adabbott

Timers On : Wed Dec  9 13:31:53 2020
Timers Off: Wed Dec  9 13:32:09 2020

Wall Time:       16.79 seconds

                                                       Time (seconds)
Module                                       User      System        Wall        Calls

--------------------------------------------------------------------------------------

**************************************************************************************

Host: adabbott

Timers On : Wed Dec  9 13:32:10 2020
Timers Off: Wed Dec  9 13:32:44 2020

Wall Time:       34.86 seconds

                                                       Time (seconds)
Module                                       User      System        Wall        Calls

--------------------------------------------------------------------------------------

**************************************************************************************

Host: adabbott

Timers On : Wed Dec  9 13:32:45 2020
Timers Off: Wed Dec  9 13:34:03 2020

Wall Time:       77.91 seconds

                                                       Time (seconds)
Module                                       User      System        Wall        Calls

--------------------------------------------------------------------------------------

**************************************************************************************

Host: adabbott

Timers On : Wed Dec  9 13:34:03 2020
Timers Off: Wed Dec  9 13:34:12 2020

Wall Time:        9.02 seconds

                                                       Time (seconds)
Module                                       User      System        Wall        Calls

--------------------------------------------------------------------------------------

**************************************************************************************

Host: adabbott

Timers On : Wed Dec  9 13:34:12 2020
Timers Off: Wed Dec  9 13:34:30 2020

Wall Time:       18.18 seconds

                                                       Time (seconds)
Module                                       User      System        Wall        Calls

--------------------------------------------------------------------------------------

**************************************************************************************

Host: adabbott

Timers On : Wed Dec  9 13:34:30 2020
Timers Off: Wed Dec  9 13:35:07 2020

Wall Time:       36.63 seconds

                                                       Time (seconds)
Module                                       User      System        Wall        Calls

--------------------------------------------------------------------------------------

**************************************************************************************

Host: adabbott

Timers On : Wed Dec  9 13:35:07 2020
Timers Off: Wed Dec  9 13:36:30 2020

Wall Time:       82.66 seconds

                                                       Time (seconds)
Module                                       User      System        Wall        Calls

--------------------------------------------------------------------------------------

**************************************************************************************

Host: adabbott

Timers On : Wed Dec  9 13:36:30 2020
Timers Off: Wed Dec  9 13:37:13 2020

Wall Time:       42.66 seconds

                                                       Time (seconds)
Module                                       User      System        Wall        Calls

--------------------------------------------------------------------------------------

**************************************************************************************

Host: adabbott

Timers On : Wed Dec  9 13:37:13 2020
Timers Off: Wed Dec  9 13:39:06 2020

Wall Time:      113.27 seconds

                                                       Time (seconds)
Module                                       User      System        Wall        Calls

--------------------------------------------------------------------------------------

**************************************************************************************

Host: adabbott

Timers On : Wed Dec  9 13:39:06 2020
Timers Off: Wed Dec  9 13:44:58 2020

Wall Time:      351.61 seconds

                                                       Time (seconds)
Module                                       User      System        Wall        Calls

--------------------------------------------------------------------------------------

**************************************************************************************

Host: adabbott

Timers On : Wed Dec  9 13:44:59 2020
Timers Off: Wed Dec  9 14:06:10 2020

Wall Time:     1271.72 seconds

                                                       Time (seconds)
Module                                       User      System        Wall        Calls

--------------------------------------------------------------------------------------

**************************************************************************************

Host: adabbott

Timers On : Wed Dec  9 14:08:05 2020
Timers Off: Wed Dec  9 14:08:29 2020

Wall Time:       24.11 seconds

                                                       Time (seconds)
Module                                       User      System        Wall        Calls

--------------------------------------------------------------------------------------

**************************************************************************************

Host: adabbott

Timers On : Wed Dec  9 14:10:39 2020
Timers Off: Wed Dec  9 14:12:31 2020

Wall Time:      111.20 seconds

                                                       Time (seconds)
Module                                       User      System        Wall        Calls

--------------------------------------------------------------------------------------

**************************************************************************************

Host: adabbott

Timers On : Wed Dec  9 14:12:34 2020
Timers Off: Wed Dec  9 14:14:25 2020

Wall Time:      110.56 seconds

                                                       Time (seconds)
Module                                       User      System        Wall        Calls

--------------------------------------------------------------------------------------

**************************************************************************************

Host: adabbott

Timers On : Wed Dec  9 14:17:43 2020
Timers Off: Wed Dec  9 14:17:58 2020

Wall Time:       14.94 seconds

                                                       Time (seconds)
Module                                       User      System        Wall        Calls

--------------------------------------------------------------------------------------

**************************************************************************************

Host: adabbott

Timers On : Wed Dec  9 14:18:17 2020
Timers Off: Wed Dec  9 14:18:36 2020

Wall Time:       19.03 seconds

                                                       Time (seconds)
Module                                       User      System        Wall        Calls

--------------------------------------------------------------------------------------

**************************************************************************************

Host: adabbott

Timers On : Wed Dec  9 14:19:14 2020
Timers Off: Wed Dec  9 14:19:29 2020

Wall Time:       14.75 seconds

                                                       Time (seconds)
Module                                       User      System        Wall        Calls

--------------------------------------------------------------------------------------

**************************************************************************************

Host: adabbott

Timers On : Wed Dec  9 14:31:29 2020
Timers Off: Wed Dec  9 14:31:48 2020

Wall Time:       18.87 seconds

                                                       Time (seconds)
Module                                       User      System        Wall        Calls

--------------------------------------------------------------------------------------

**************************************************************************************

Host: adabbott

Timers On : Wed Dec  9 14:32:04 2020
Timers Off: Wed Dec  9 14:32:19 2020

Wall Time:       14.73 seconds

                                                       Time (seconds)
Module                                       User      System        Wall        Calls

--------------------------------------------------------------------------------------

**************************************************************************************

Host: adabbott

Timers On : Wed Dec  9 14:32:32 2020
Timers Off: Wed Dec  9 14:32:47 2020

Wall Time:       14.67 seconds

                                                       Time (seconds)
Module                                       User      System        Wall        Calls

--------------------------------------------------------------------------------------

**************************************************************************************

Host: adabbott

Timers On : Wed Dec  9 14:35:09 2020
Timers Off: Wed Dec  9 14:35:24 2020

Wall Time:       15.24 seconds

                                                       Time (seconds)
Module                                       User      System        Wall        Calls

--------------------------------------------------------------------------------------

**************************************************************************************

Host: adabbott

Timers On : Wed Dec  9 14:35:49 2020
Timers Off: Wed Dec  9 14:36:04 2020

Wall Time:       15.42 seconds

                                                       Time (seconds)
Module                                       User      System        Wall        Calls

--------------------------------------------------------------------------------------

**************************************************************************************

Host: adabbott

Timers On : Wed Dec  9 14:44:00 2020
Timers Off: Wed Dec  9 14:44:15 2020

Wall Time:       14.87 seconds

                                                       Time (seconds)
Module                                       User      System        Wall        Calls

--------------------------------------------------------------------------------------

**************************************************************************************

Host: adabbott

Timers On : Wed Dec  9 14:47:06 2020
Timers Off: Wed Dec  9 14:48:58 2020

Wall Time:      111.51 seconds

                                                       Time (seconds)
Module                                       User      System        Wall        Calls

--------------------------------------------------------------------------------------

**************************************************************************************

Host: adabbott

Timers On : Wed Dec  9 14:50:47 2020
Timers Off: Wed Dec  9 14:51:12 2020

Wall Time:       24.25 seconds

                                                       Time (seconds)
Module                                       User      System        Wall        Calls

--------------------------------------------------------------------------------------

**************************************************************************************

Host: adabbott

Timers On : Wed Dec  9 14:53:40 2020
Timers Off: Wed Dec  9 14:54:05 2020

Wall Time:       24.46 seconds

                                                       Time (seconds)
Module                                       User      System        Wall        Calls

--------------------------------------------------------------------------------------

**************************************************************************************

Host: adabbott

Timers On : Wed Dec  9 14:55:49 2020
Timers Off: Wed Dec  9 14:56:01 2020

Wall Time:       12.02 seconds

                                                       Time (seconds)
Module                                       User      System        Wall        Calls

--------------------------------------------------------------------------------------

**************************************************************************************

Host: adabbott

Timers On : Wed Dec  9 14:58:02 2020
Timers Off: Wed Dec  9 14:58:14 2020

Wall Time:       12.07 seconds

                                                       Time (seconds)
Module                                       User      System        Wall        Calls

--------------------------------------------------------------------------------------

**************************************************************************************

Host: adabbott

Timers On : Wed Dec  9 14:59:36 2020
Timers Off: Wed Dec  9 14:59:48 2020

Wall Time:       12.02 seconds

                                                       Time (seconds)
Module                                       User      System        Wall        Calls

--------------------------------------------------------------------------------------

**************************************************************************************

Host: adabbott

Timers On : Wed Dec  9 15:08:49 2020
Timers Off: Wed Dec  9 15:09:01 2020

Wall Time:       11.94 seconds

                                                       Time (seconds)
Module                                       User      System        Wall        Calls

--------------------------------------------------------------------------------------

**************************************************************************************

Host: adabbott

Timers On : Wed Dec  9 15:10:55 2020
Timers Off: Wed Dec  9 15:11:07 2020

Wall Time:       11.88 seconds

                                                       Time (seconds)
Module                                       User      System        Wall        Calls

--------------------------------------------------------------------------------------

**************************************************************************************

Host: adabbott

Timers On : Wed Dec  9 15:11:14 2020
Timers Off: Wed Dec  9 15:11:56 2020

Wall Time:       42.53 seconds

                                                       Time (seconds)
Module                                       User      System        Wall        Calls

--------------------------------------------------------------------------------------

**************************************************************************************

Host: adabbott

Timers On : Wed Dec  9 15:12:34 2020
Timers Off: Wed Dec  9 15:13:17 2020

Wall Time:       42.59 seconds

                                                       Time (seconds)
Module                                       User      System        Wall        Calls

--------------------------------------------------------------------------------------

**************************************************************************************

Host: adabbott

Timers On : Wed Dec  9 15:17:09 2020
Timers Off: Wed Dec  9 15:17:52 2020

Wall Time:       42.73 seconds

                                                       Time (seconds)
Module                                       User      System        Wall        Calls

--------------------------------------------------------------------------------------

**************************************************************************************

Host: adabbott

Timers On : Wed Dec  9 15:19:36 2020
Timers Off: Wed Dec  9 15:20:20 2020

Wall Time:       43.82 seconds

                                                       Time (seconds)
Module                                       User      System        Wall        Calls

--------------------------------------------------------------------------------------

**************************************************************************************

Host: adabbott

Timers On : Wed Dec  9 15:21:26 2020
Timers Off: Wed Dec  9 15:22:10 2020

Wall Time:       43.63 seconds

                                                       Time (seconds)
Module                                       User      System        Wall        Calls

--------------------------------------------------------------------------------------

**************************************************************************************

Host: adabbott

Timers On : Wed Dec  9 15:26:39 2020
Timers Off: Wed Dec  9 15:26:51 2020

Wall Time:       11.85 seconds

                                                       Time (seconds)
Module                                       User      System        Wall        Calls

--------------------------------------------------------------------------------------

**************************************************************************************

Host: adabbott

Timers On : Wed Dec  9 15:27:58 2020
Timers Off: Wed Dec  9 15:28:10 2020

Wall Time:       11.94 seconds

                                                       Time (seconds)
Module                                       User      System        Wall        Calls

--------------------------------------------------------------------------------------

**************************************************************************************

Host: adabbott

Timers On : Wed Dec  9 15:30:55 2020
Timers Off: Wed Dec  9 15:31:39 2020

Wall Time:       44.08 seconds

                                                       Time (seconds)
Module                                       User      System        Wall        Calls

--------------------------------------------------------------------------------------

**************************************************************************************

Host: adabbott

Timers On : Wed Dec  9 15:32:59 2020
Timers Off: Wed Dec  9 15:33:40 2020

Wall Time:       41.14 seconds

                                                       Time (seconds)
Module                                       User      System        Wall        Calls

--------------------------------------------------------------------------------------

**************************************************************************************

Host: adabbott

Timers On : Wed Dec  9 15:34:26 2020
Timers Off: Wed Dec  9 15:35:07 2020

Wall Time:       41.06 seconds

                                                       Time (seconds)
Module                                       User      System        Wall        Calls

--------------------------------------------------------------------------------------

**************************************************************************************

Host: adabbott

Timers On : Wed Dec  9 15:36:16 2020
Timers Off: Wed Dec  9 15:38:06 2020

Wall Time:      109.19 seconds

                                                       Time (seconds)
Module                                       User      System        Wall        Calls

--------------------------------------------------------------------------------------

**************************************************************************************

Host: adabbott

Timers On : Wed Dec  9 15:38:22 2020
Timers Off: Wed Dec  9 15:44:12 2020

Wall Time:      350.21 seconds

                                                       Time (seconds)
Module                                       User      System        Wall        Calls

--------------------------------------------------------------------------------------

**************************************************************************************

Host: adabbott

Timers On : Wed Dec  9 15:51:35 2020
Timers Off: Wed Dec  9 15:57:23 2020

Wall Time:      348.07 seconds

                                                       Time (seconds)
Module                                       User      System        Wall        Calls

--------------------------------------------------------------------------------------

**************************************************************************************

Host: adabbott

Timers On : Wed Dec  9 16:00:15 2020
Timers Off: Wed Dec  9 16:01:07 2020

Wall Time:       52.37 seconds

                                                       Time (seconds)
Module                                       User      System        Wall        Calls

--------------------------------------------------------------------------------------

**************************************************************************************

Host: adabbott

Timers On : Wed Dec  9 16:01:35 2020
Timers Off: Wed Dec  9 16:02:21 2020

Wall Time:       46.05 seconds

                                                       Time (seconds)
Module                                       User      System        Wall        Calls

--------------------------------------------------------------------------------------

**************************************************************************************

Host: adabbott

Timers On : Wed Dec  9 16:03:49 2020
Timers Off: Wed Dec  9 16:05:00 2020

Wall Time:       71.70 seconds

                                                       Time (seconds)
Module                                       User      System        Wall        Calls

--------------------------------------------------------------------------------------

**************************************************************************************

Host: adabbott

Timers On : Wed Dec  9 16:05:26 2020
Timers Off: Wed Dec  9 16:05:41 2020

Wall Time:       14.85 seconds

                                                       Time (seconds)
Module                                       User      System        Wall        Calls

--------------------------------------------------------------------------------------

**************************************************************************************

Host: adabbott

Timers On : Wed Dec  9 16:06:50 2020
Timers Off: Wed Dec  9 16:07:32 2020

Wall Time:       41.57 seconds

                                                       Time (seconds)
Module                                       User      System        Wall        Calls

--------------------------------------------------------------------------------------

**************************************************************************************

Host: adabbott

Timers On : Wed Dec  9 16:08:33 2020
Timers Off: Wed Dec  9 16:10:22 2020

Wall Time:      109.05 seconds

                                                       Time (seconds)
Module                                       User      System        Wall        Calls

--------------------------------------------------------------------------------------

**************************************************************************************

Host: adabbott

Timers On : Wed Dec  9 16:10:33 2020
Timers Off: Wed Dec  9 16:10:54 2020

Wall Time:       21.27 seconds

                                                       Time (seconds)
Module                                       User      System        Wall        Calls

--------------------------------------------------------------------------------------

**************************************************************************************

Host: adabbott

Timers On : Wed Dec  9 16:11:25 2020
Timers Off: Wed Dec  9 16:14:56 2020

Wall Time:      211.52 seconds

                                                       Time (seconds)
Module                                       User      System        Wall        Calls

--------------------------------------------------------------------------------------

**************************************************************************************

Host: adabbott

Timers On : Wed Dec  9 16:15:17 2020
Timers Off: Wed Dec  9 16:16:30 2020

Wall Time:       72.77 seconds

                                                       Time (seconds)
Module                                       User      System        Wall        Calls

--------------------------------------------------------------------------------------

**************************************************************************************

Host: adabbott

Timers On : Wed Dec  9 16:18:51 2020
Timers Off: Wed Dec  9 16:18:59 2020

Wall Time:        8.09 seconds

                                                       Time (seconds)
Module                                       User      System        Wall        Calls

--------------------------------------------------------------------------------------

**************************************************************************************

Host: adabbott

Timers On : Wed Dec  9 16:19:11 2020
Timers Off: Wed Dec  9 16:22:48 2020

Wall Time:      216.79 seconds

                                                       Time (seconds)
Module                                       User      System        Wall        Calls

--------------------------------------------------------------------------------------

**************************************************************************************

Host: adabbott

Timers On : Wed Dec  9 16:23:45 2020
Timers Off: Wed Dec  9 16:24:58 2020

Wall Time:       72.36 seconds

                                                       Time (seconds)
Module                                       User      System        Wall        Calls

--------------------------------------------------------------------------------------

**************************************************************************************

Host: adabbott

Timers On : Thu Dec 10 11:10:05 2020
Timers Off: Thu Dec 10 11:11:14 2020

Wall Time:       69.86 seconds

                                                       Time (seconds)
Module                                       User      System        Wall        Calls

--------------------------------------------------------------------------------------

**************************************************************************************

Host: adabbott

Timers On : Thu Dec 10 11:11:28 2020
Timers Off: Thu Dec 10 11:15:21 2020

Wall Time:      232.74 seconds

                                                       Time (seconds)
Module                                       User      System        Wall        Calls

--------------------------------------------------------------------------------------

**************************************************************************************

Host: adabbott

Timers On : Thu Dec 10 11:16:47 2020
Timers Off: Thu Dec 10 11:16:47 2020

Wall Time:        0.77 seconds

                                                       Time (seconds)
Module                                       User      System        Wall        Calls

--------------------------------------------------------------------------------------

**************************************************************************************

Host: adabbott

Timers On : Thu Dec 10 11:17:04 2020
Timers Off: Thu Dec 10 11:17:05 2020

Wall Time:        0.79 seconds

                                                       Time (seconds)
Module                                       User      System        Wall        Calls

--------------------------------------------------------------------------------------

**************************************************************************************

Host: adabbott

Timers On : Thu Dec 10 11:17:51 2020
Timers Off: Thu Dec 10 11:17:52 2020

Wall Time:        0.76 seconds

                                                       Time (seconds)
Module                                       User      System        Wall        Calls

--------------------------------------------------------------------------------------

**************************************************************************************

Host: adabbott

Timers On : Thu Dec 10 11:21:03 2020
Timers Off: Thu Dec 10 11:22:14 2020

Wall Time:       70.81 seconds

                                                       Time (seconds)
Module                                       User      System        Wall        Calls

--------------------------------------------------------------------------------------

**************************************************************************************

Host: adabbott

Timers On : Thu Dec 10 11:22:48 2020
Timers Off: Thu Dec 10 11:22:56 2020

Wall Time:        7.73 seconds

                                                       Time (seconds)
Module                                       User      System        Wall        Calls

--------------------------------------------------------------------------------------

**************************************************************************************

Host: adabbott

Timers On : Thu Dec 10 11:26:10 2020
Timers Off: Thu Dec 10 11:26:18 2020

Wall Time:        7.76 seconds

                                                       Time (seconds)
Module                                       User      System        Wall        Calls

--------------------------------------------------------------------------------------

**************************************************************************************

Host: adabbott

Timers On : Thu Dec 10 11:26:27 2020
Timers Off: Thu Dec 10 11:26:50 2020

Wall Time:       23.24 seconds

                                                       Time (seconds)
Module                                       User      System        Wall        Calls

--------------------------------------------------------------------------------------

**************************************************************************************

Host: adabbott

Timers On : Thu Dec 10 11:27:05 2020
Timers Off: Thu Dec 10 11:30:27 2020

Wall Time:      202.52 seconds

                                                       Time (seconds)
Module                                       User      System        Wall        Calls

--------------------------------------------------------------------------------------

**************************************************************************************

Host: adabbott

Timers On : Thu Dec 10 11:31:07 2020
Timers Off: Thu Dec 10 11:31:15 2020

Wall Time:        7.73 seconds

                                                       Time (seconds)
Module                                       User      System        Wall        Calls

--------------------------------------------------------------------------------------

**************************************************************************************

Host: adabbott

Timers On : Thu Dec 10 11:31:22 2020
Timers Off: Thu Dec 10 11:31:31 2020

Wall Time:        8.61 seconds

                                                       Time (seconds)
Module                                       User      System        Wall        Calls

--------------------------------------------------------------------------------------

**************************************************************************************

Host: adabbott

Timers On : Thu Dec 10 11:34:21 2020
Timers Off: Thu Dec 10 11:35:31 2020

Wall Time:       70.25 seconds

                                                       Time (seconds)
Module                                       User      System        Wall        Calls

--------------------------------------------------------------------------------------

**************************************************************************************

Host: adabbott

Timers On : Thu Dec 10 11:36:02 2020
Timers Off: Thu Dec 10 11:37:13 2020

Wall Time:       70.80 seconds

                                                       Time (seconds)
Module                                       User      System        Wall        Calls

--------------------------------------------------------------------------------------

**************************************************************************************

Host: adabbott

Timers On : Thu Dec 10 11:45:26 2020
Timers Off: Thu Dec 10 11:45:34 2020

Wall Time:        7.84 seconds

                                                       Time (seconds)
Module                                       User      System        Wall        Calls

--------------------------------------------------------------------------------------

**************************************************************************************

Host: adabbott

Timers On : Thu Dec 10 11:45:46 2020
Timers Off: Thu Dec 10 11:45:54 2020

Wall Time:        8.21 seconds

                                                       Time (seconds)
Module                                       User      System        Wall        Calls

--------------------------------------------------------------------------------------

**************************************************************************************

Host: adabbott

Timers On : Thu Dec 10 11:46:09 2020
Timers Off: Thu Dec 10 11:47:19 2020

Wall Time:       70.14 seconds

                                                       Time (seconds)
Module                                       User      System        Wall        Calls

--------------------------------------------------------------------------------------

**************************************************************************************

Host: adabbott

Timers On : Thu Dec 10 11:47:53 2020
Timers Off: Thu Dec 10 11:49:03 2020

Wall Time:       69.94 seconds

                                                       Time (seconds)
Module                                       User      System        Wall        Calls

--------------------------------------------------------------------------------------

**************************************************************************************

Host: adabbott

Timers On : Thu Dec 10 11:56:50 2020
Timers Off: Thu Dec 10 11:56:57 2020

Wall Time:        7.74 seconds

                                                       Time (seconds)
Module                                       User      System        Wall        Calls

--------------------------------------------------------------------------------------

**************************************************************************************

Host: adabbott

Timers On : Thu Dec 10 11:58:52 2020
Timers Off: Thu Dec 10 11:59:01 2020

Wall Time:        8.42 seconds

                                                       Time (seconds)
Module                                       User      System        Wall        Calls

--------------------------------------------------------------------------------------

**************************************************************************************

Host: adabbott

Timers On : Thu Dec 10 12:06:14 2020
Timers Off: Thu Dec 10 12:06:15 2020

Wall Time:        0.75 seconds

                                                       Time (seconds)
Module                                       User      System        Wall        Calls

--------------------------------------------------------------------------------------

**************************************************************************************

Host: adabbott

Timers On : Thu Dec 10 12:06:26 2020
Timers Off: Thu Dec 10 12:06:30 2020

Wall Time:        4.39 seconds

                                                       Time (seconds)
Module                                       User      System        Wall        Calls

--------------------------------------------------------------------------------------

**************************************************************************************

Host: adabbott

Timers On : Thu Dec 10 12:08:40 2020
Timers Off: Thu Dec 10 12:08:44 2020

Wall Time:        4.48 seconds

                                                       Time (seconds)
Module                                       User      System        Wall        Calls

--------------------------------------------------------------------------------------

**************************************************************************************

Host: adabbott

Timers On : Thu Dec 10 12:08:56 2020
Timers Off: Thu Dec 10 12:09:00 2020

Wall Time:        4.39 seconds

                                                       Time (seconds)
Module                                       User      System        Wall        Calls

--------------------------------------------------------------------------------------

**************************************************************************************

Host: adabbott

Timers On : Thu Dec 10 12:11:15 2020
Timers Off: Thu Dec 10 12:11:23 2020

Wall Time:        8.28 seconds

                                                       Time (seconds)
Module                                       User      System        Wall        Calls

--------------------------------------------------------------------------------------

**************************************************************************************

Host: adabbott

Timers On : Thu Dec 10 12:13:41 2020
Timers Off: Thu Dec 10 12:13:45 2020

Wall Time:        4.41 seconds

                                                       Time (seconds)
Module                                       User      System        Wall        Calls

--------------------------------------------------------------------------------------

**************************************************************************************

Host: adabbott

Timers On : Thu Dec 10 12:14:01 2020
Timers Off: Thu Dec 10 12:14:10 2020

Wall Time:        9.14 seconds

                                                       Time (seconds)
Module                                       User      System        Wall        Calls

--------------------------------------------------------------------------------------

**************************************************************************************

Host: adabbott

Timers On : Thu Dec 10 12:15:13 2020
Timers Off: Thu Dec 10 12:15:17 2020

Wall Time:        4.45 seconds

                                                       Time (seconds)
Module                                       User      System        Wall        Calls

--------------------------------------------------------------------------------------

**************************************************************************************

Host: adabbott

Timers On : Thu Dec 10 12:15:29 2020
Timers Off: Thu Dec 10 12:15:38 2020

Wall Time:        8.60 seconds

                                                       Time (seconds)
Module                                       User      System        Wall        Calls

--------------------------------------------------------------------------------------

**************************************************************************************

Host: adabbott

Timers On : Thu Dec 10 12:15:52 2020
Timers Off: Thu Dec 10 12:16:01 2020

Wall Time:        8.57 seconds

                                                       Time (seconds)
Module                                       User      System        Wall        Calls

--------------------------------------------------------------------------------------

**************************************************************************************

Host: adabbott

Timers On : Thu Dec 10 12:16:30 2020
Timers Off: Thu Dec 10 12:16:31 2020

Wall Time:        0.75 seconds

                                                       Time (seconds)
Module                                       User      System        Wall        Calls

--------------------------------------------------------------------------------------

**************************************************************************************

Host: adabbott

Timers On : Thu Dec 10 12:16:38 2020
Timers Off: Thu Dec 10 12:16:46 2020

Wall Time:        8.40 seconds

                                                       Time (seconds)
Module                                       User      System        Wall        Calls

--------------------------------------------------------------------------------------

**************************************************************************************

Host: adabbott

Timers On : Thu Dec 10 12:17:37 2020
Timers Off: Thu Dec 10 12:17:41 2020

Wall Time:        4.37 seconds

                                                       Time (seconds)
Module                                       User      System        Wall        Calls

--------------------------------------------------------------------------------------

**************************************************************************************

Host: adabbott

Timers On : Thu Dec 10 12:17:52 2020
Timers Off: Thu Dec 10 12:18:01 2020

Wall Time:        8.32 seconds

                                                       Time (seconds)
Module                                       User      System        Wall        Calls

--------------------------------------------------------------------------------------

**************************************************************************************

Host: adabbott

Timers On : Thu Dec 10 12:18:15 2020
Timers Off: Thu Dec 10 12:18:23 2020

Wall Time:        8.42 seconds

                                                       Time (seconds)
Module                                       User      System        Wall        Calls

--------------------------------------------------------------------------------------

**************************************************************************************

Host: adabbott

Timers On : Thu Dec 10 12:18:31 2020
Timers Off: Thu Dec 10 12:19:47 2020

Wall Time:       75.95 seconds

                                                       Time (seconds)
Module                                       User      System        Wall        Calls

--------------------------------------------------------------------------------------

**************************************************************************************

Host: adabbott

Timers On : Thu Dec 10 12:21:04 2020
Timers Off: Thu Dec 10 12:22:13 2020

Wall Time:       68.78 seconds

                                                       Time (seconds)
Module                                       User      System        Wall        Calls

--------------------------------------------------------------------------------------

**************************************************************************************

Host: adabbott

Timers On : Thu Dec 10 12:22:45 2020
Timers Off: Thu Dec 10 12:23:54 2020

Wall Time:       69.65 seconds

                                                       Time (seconds)
Module                                       User      System        Wall        Calls

--------------------------------------------------------------------------------------

**************************************************************************************

Host: adabbott

Timers On : Thu Dec 10 12:24:46 2020
Timers Off: Thu Dec 10 12:25:55 2020

Wall Time:       68.68 seconds

                                                       Time (seconds)
Module                                       User      System        Wall        Calls

--------------------------------------------------------------------------------------

**************************************************************************************

Host: adabbott

Timers On : Thu Dec 10 12:31:25 2020
Timers Off: Thu Dec 10 12:31:30 2020

Wall Time:        4.38 seconds

                                                       Time (seconds)
Module                                       User      System        Wall        Calls

--------------------------------------------------------------------------------------

**************************************************************************************

Host: adabbott

Timers On : Thu Dec 10 12:32:34 2020
Timers Off: Thu Dec 10 12:32:38 2020

Wall Time:        4.37 seconds

                                                       Time (seconds)
Module                                       User      System        Wall        Calls

--------------------------------------------------------------------------------------

**************************************************************************************

Host: adabbott

Timers On : Thu Dec 10 12:34:51 2020
Timers Off: Thu Dec 10 12:35:06 2020

Wall Time:       15.21 seconds

                                                       Time (seconds)
Module                                       User      System        Wall        Calls

--------------------------------------------------------------------------------------

**************************************************************************************

Host: adabbott

Timers On : Thu Dec 10 12:35:28 2020
Timers Off: Thu Dec 10 12:35:43 2020

Wall Time:       15.23 seconds

                                                       Time (seconds)
Module                                       User      System        Wall        Calls

--------------------------------------------------------------------------------------

**************************************************************************************

Host: adabbott

Timers On : Thu Dec 10 12:36:17 2020
Timers Off: Thu Dec 10 12:36:25 2020

Wall Time:        8.33 seconds

                                                       Time (seconds)
Module                                       User      System        Wall        Calls

--------------------------------------------------------------------------------------

**************************************************************************************

Host: adabbott

Timers On : Thu Dec 10 12:36:44 2020
Timers Off: Thu Dec 10 12:36:59 2020

Wall Time:       15.28 seconds

                                                       Time (seconds)
Module                                       User      System        Wall        Calls

--------------------------------------------------------------------------------------

**************************************************************************************

Host: adabbott

Timers On : Thu Dec 10 12:37:16 2020
Timers Off: Thu Dec 10 12:37:24 2020

Wall Time:        8.19 seconds

                                                       Time (seconds)
Module                                       User      System        Wall        Calls

--------------------------------------------------------------------------------------

**************************************************************************************

Host: adabbott

Timers On : Thu Dec 10 12:42:35 2020
Timers Off: Thu Dec 10 12:42:53 2020

Wall Time:       18.16 seconds

                                                       Time (seconds)
Module                                       User      System        Wall        Calls

--------------------------------------------------------------------------------------

**************************************************************************************

Host: adabbott

Timers On : Thu Dec 10 12:43:17 2020
Timers Off: Thu Dec 10 12:44:29 2020

Wall Time:       72.25 seconds

                                                       Time (seconds)
Module                                       User      System        Wall        Calls

--------------------------------------------------------------------------------------

**************************************************************************************

Host: adabbott

Timers On : Thu Dec 10 12:45:37 2020
Timers Off: Thu Dec 10 12:46:46 2020

Wall Time:       69.26 seconds

                                                       Time (seconds)
Module                                       User      System        Wall        Calls

--------------------------------------------------------------------------------------

**************************************************************************************

Host: adabbott

Timers On : Thu Dec 10 12:47:02 2020
Timers Off: Thu Dec 10 12:48:03 2020

Wall Time:       60.51 seconds

                                                       Time (seconds)
Module                                       User      System        Wall        Calls

--------------------------------------------------------------------------------------

**************************************************************************************

Host: adabbott

Timers On : Thu Dec 10 12:49:33 2020
Timers Off: Thu Dec 10 12:50:33 2020

Wall Time:       60.31 seconds

                                                       Time (seconds)
Module                                       User      System        Wall        Calls

--------------------------------------------------------------------------------------

**************************************************************************************

Host: adabbott

Timers On : Thu Dec 10 12:50:54 2020
Timers Off: Thu Dec 10 12:53:17 2020

Wall Time:      143.62 seconds

                                                       Time (seconds)
Module                                       User      System        Wall        Calls

--------------------------------------------------------------------------------------

**************************************************************************************

Host: adabbott

Timers On : Thu Dec 10 12:54:25 2020
Timers Off: Thu Dec 10 12:55:26 2020

Wall Time:       60.77 seconds

                                                       Time (seconds)
Module                                       User      System        Wall        Calls

--------------------------------------------------------------------------------------

**************************************************************************************

Host: adabbott

Timers On : Thu Dec 10 12:55:40 2020
Timers Off: Thu Dec 10 12:58:04 2020

Wall Time:      143.90 seconds

                                                       Time (seconds)
Module                                       User      System        Wall        Calls

--------------------------------------------------------------------------------------

**************************************************************************************

Host: adabbott

[...]

Host: n093

Timers On : Tue Dec 22 20:24:36 2020
Timers Off: Tue Dec 22 20:30:57 2020

Wall Time:      380.82 seconds

                                                       Time (seconds)
Module                                       User      System        Wall        Calls

--------------------------------------------------------------------------------------

**************************************************************************************

Host: n093

Timers On : Tue Dec 22 20:30:57 2020
Timers Off: Tue Dec 22 20:48:32 2020

Wall Time:     1054.57 seconds

                                                       Time (seconds)
Module                                       User      System        Wall        Calls

--------------------------------------------------------------------------------------

**************************************************************************************

Host: n093

Timers On : Tue Dec 22 20:48:33 2020
Timers Off: Tue Dec 22 20:49:33 2020

Wall Time:       60.21 seconds

                                                       Time (seconds)
Module                                       User      System        Wall        Calls

--------------------------------------------------------------------------------------

**************************************************************************************

Host: n093

Timers On : Tue Dec 22 20:49:33 2020
Timers Off: Tue Dec 22 20:51:46 2020

Wall Time:      132.98 seconds

                                                       Time (seconds)
Module                                       User      System        Wall        Calls

--------------------------------------------------------------------------------------

**************************************************************************************

Host: n093

Timers On : Tue Dec 22 20:51:47 2020
Timers Off: Tue Dec 22 20:56:39 2020

Wall Time:      291.76 seconds

                                                       Time (seconds)
Module                                       User      System        Wall        Calls

--------------------------------------------------------------------------------------

**************************************************************************************

Host: n093

Timers On : Tue Dec 22 20:56:39 2020
Timers Off: Tue Dec 22 21:08:05 2020

Wall Time:      686.10 seconds

                                                       Time (seconds)
Module                                       User      System        Wall        Calls

--------------------------------------------------------------------------------------

**************************************************************************************

Host: n093

Timers On : Tue Dec 22 21:08:07 2020
Timers Off: Tue Dec 22 21:36:05 2020

Wall Time:     1678.34 seconds

                                                       Time (seconds)
Module                                       User      System        Wall        Calls

--------------------------------------------------------------------------------------

**************************************************************************************

Host: n093

Timers On : Tue Dec 22 21:36:08 2020
Timers Off: Tue Dec 22 22:54:05 2020

Wall Time:     4677.51 seconds

                                                       Time (seconds)
Module                                       User      System        Wall        Calls

--------------------------------------------------------------------------------------

**************************************************************************************

Host: n093

Timers On : Mon Jan 18 20:59:17 2021
Timers Off: Mon Jan 18 20:59:28 2021

Wall Time:       11.86 seconds

                                                       Time (seconds)
Module                                       User      System        Wall        Calls

--------------------------------------------------------------------------------------

**************************************************************************************

Host: n093

Timers On : Mon Jan 18 20:59:29 2021
Timers Off: Mon Jan 18 20:59:54 2021

Wall Time:       24.93 seconds

                                                       Time (seconds)
Module                                       User      System        Wall        Calls

--------------------------------------------------------------------------------------

**************************************************************************************

Host: n093

Timers On : Mon Jan 18 20:59:54 2021
Timers Off: Mon Jan 18 21:00:49 2021

Wall Time:       54.89 seconds

                                                       Time (seconds)
Module                                       User      System        Wall        Calls

--------------------------------------------------------------------------------------

**************************************************************************************

Host: n093

Timers On : Mon Jan 18 21:00:49 2021
Timers Off: Mon Jan 18 21:03:03 2021

Wall Time:      134.15 seconds

                                                       Time (seconds)
Module                                       User      System        Wall        Calls

--------------------------------------------------------------------------------------

**************************************************************************************

Host: n093

Timers On : Mon Jan 18 21:03:04 2021
Timers Off: Mon Jan 18 21:09:16 2021

Wall Time:      372.83 seconds

                                                       Time (seconds)
Module                                       User      System        Wall        Calls

--------------------------------------------------------------------------------------

**************************************************************************************

Host: n093

Timers On : Mon Jan 18 21:09:17 2021
Timers Off: Mon Jan 18 21:26:44 2021

Wall Time:     1047.34 seconds

                                                       Time (seconds)
Module                                       User      System        Wall        Calls

--------------------------------------------------------------------------------------

**************************************************************************************

Host: n093

Timers On : Mon Jan 18 21:26:45 2021
Timers Off: Mon Jan 18 21:26:59 2021

Wall Time:       13.94 seconds

                                                       Time (seconds)
Module                                       User      System        Wall        Calls

--------------------------------------------------------------------------------------

**************************************************************************************

Host: n093

Timers On : Mon Jan 18 21:26:59 2021
Timers Off: Mon Jan 18 21:27:28 2021

Wall Time:       28.18 seconds

                                                       Time (seconds)
Module                                       User      System        Wall        Calls

--------------------------------------------------------------------------------------

**************************************************************************************

Host: n093

Timers On : Mon Jan 18 21:27:28 2021
Timers Off: Mon Jan 18 21:28:30 2021

Wall Time:       62.07 seconds

                                                       Time (seconds)
Module                                       User      System        Wall        Calls

--------------------------------------------------------------------------------------

**************************************************************************************

Host: n093

Timers On : Mon Jan 18 21:28:30 2021
Timers Off: Mon Jan 18 21:31:02 2021

Wall Time:      151.41 seconds

                                                       Time (seconds)
Module                                       User      System        Wall        Calls

--------------------------------------------------------------------------------------

**************************************************************************************

Host: n093

Timers On : Mon Jan 18 21:31:02 2021
Timers Off: Mon Jan 18 21:37:17 2021

Wall Time:      375.10 seconds

                                                       Time (seconds)
Module                                       User      System        Wall        Calls

--------------------------------------------------------------------------------------

**************************************************************************************

Host: n093

Timers On : Mon Jan 18 21:37:18 2021
Timers Off: Mon Jan 18 21:55:49 2021

Wall Time:     1111.76 seconds

                                                       Time (seconds)
Module                                       User      System        Wall        Calls

--------------------------------------------------------------------------------------

**************************************************************************************

Host: n093

Timers On : Mon Jan 18 21:55:50 2021
Timers Off: Mon Jan 18 21:56:50 2021

Wall Time:       59.28 seconds

                                                       Time (seconds)
Module                                       User      System        Wall        Calls

--------------------------------------------------------------------------------------

**************************************************************************************

Host: n093

Timers On : Mon Jan 18 21:56:50 2021
Timers Off: Mon Jan 18 21:59:01 2021

Wall Time:      131.49 seconds

                                                       Time (seconds)
Module                                       User      System        Wall        Calls

--------------------------------------------------------------------------------------

**************************************************************************************

Host: n093

Timers On : Mon Jan 18 21:59:02 2021
Timers Off: Mon Jan 18 22:03:57 2021

Wall Time:      294.73 seconds

                                                       Time (seconds)
Module                                       User      System        Wall        Calls

--------------------------------------------------------------------------------------

**************************************************************************************

Host: n093

Timers On : Mon Jan 18 22:03:57 2021
Timers Off: Mon Jan 18 22:15:19 2021

Wall Time:      681.63 seconds

                                                       Time (seconds)
Module                                       User      System        Wall        Calls

--------------------------------------------------------------------------------------

**************************************************************************************

Host: n093

Timers On : Mon Jan 18 22:15:20 2021
Timers Off: Mon Jan 18 22:43:42 2021

Wall Time:     1701.46 seconds

                                                       Time (seconds)
Module                                       User      System        Wall        Calls

--------------------------------------------------------------------------------------

**************************************************************************************

Host: n093

Timers On : Mon Jan 18 22:43:45 2021
Timers Off: Tue Jan 19 00:00:53 2021

Wall Time:     4628.66 seconds

                                                       Time (seconds)
Module                                       User      System        Wall        Calls

--------------------------------------------------------------------------------------

**************************************************************************************

Host: n093

Timers On : Thu Jan 21 23:54:57 2021
Timers Off: Thu Jan 21 23:55:09 2021

Wall Time:       11.61 seconds

                                                       Time (seconds)
Module                                       User      System        Wall        Calls

--------------------------------------------------------------------------------------

**************************************************************************************

Host: n093

Timers On : Thu Jan 21 23:55:09 2021
Timers Off: Thu Jan 21 23:55:34 2021

Wall Time:       25.19 seconds

                                                       Time (seconds)
Module                                       User      System        Wall        Calls

--------------------------------------------------------------------------------------

**************************************************************************************

Host: n093

Timers On : Thu Jan 21 23:55:35 2021
Timers Off: Thu Jan 21 23:56:31 2021

Wall Time:       56.12 seconds

                                                       Time (seconds)
Module                                       User      System        Wall        Calls

--------------------------------------------------------------------------------------

**************************************************************************************

Host: n093

Timers On : Thu Jan 21 23:56:31 2021
Timers Off: Thu Jan 21 23:58:53 2021

Wall Time:      141.97 seconds

                                                       Time (seconds)
Module                                       User      System        Wall        Calls

--------------------------------------------------------------------------------------

**************************************************************************************

Host: n093

Timers On : Thu Jan 21 23:58:53 2021
Timers Off: Fri Jan 22 00:05:04 2021

Wall Time:      370.52 seconds

                                                       Time (seconds)
Module                                       User      System        Wall        Calls

--------------------------------------------------------------------------------------

**************************************************************************************

Host: n093

Timers On : Fri Jan 22 00:05:04 2021
Timers Off: Fri Jan 22 00:23:06 2021

Wall Time:     1082.17 seconds

                                                       Time (seconds)
Module                                       User      System        Wall        Calls

--------------------------------------------------------------------------------------

**************************************************************************************

Host: n093

Timers On : Fri Jan 22 00:23:07 2021
Timers Off: Fri Jan 22 00:23:21 2021

Wall Time:       13.58 seconds

                                                       Time (seconds)
Module                                       User      System        Wall        Calls

--------------------------------------------------------------------------------------

**************************************************************************************

Host: n093

Timers On : Fri Jan 22 00:23:21 2021
Timers Off: Fri Jan 22 00:23:50 2021

Wall Time:       29.41 seconds

                                                       Time (seconds)
Module                                       User      System        Wall        Calls

--------------------------------------------------------------------------------------

**************************************************************************************

Host: n093

Timers On : Fri Jan 22 00:23:51 2021
Timers Off: Fri Jan 22 00:24:54 2021

Wall Time:       63.49 seconds

                                                       Time (seconds)
Module                                       User      System        Wall        Calls

--------------------------------------------------------------------------------------

**************************************************************************************

Host: n093

Timers On : Fri Jan 22 00:24:55 2021
Timers Off: Fri Jan 22 00:27:24 2021

Wall Time:      149.73 seconds

                                                       Time (seconds)
Module                                       User      System        Wall        Calls

--------------------------------------------------------------------------------------

**************************************************************************************

Host: n093

Timers On : Fri Jan 22 00:27:25 2021
Timers Off: Fri Jan 22 00:33:57 2021

Wall Time:      391.86 seconds

                                                       Time (seconds)
Module                                       User      System        Wall        Calls

--------------------------------------------------------------------------------------

**************************************************************************************

Host: n093

Timers On : Fri Jan 22 00:33:57 2021
Timers Off: Fri Jan 22 00:52:41 2021

Wall Time:     1123.78 seconds

                                                       Time (seconds)
Module                                       User      System        Wall        Calls

--------------------------------------------------------------------------------------

**************************************************************************************

Host: n093

Timers On : Fri Jan 22 00:52:42 2021
Timers Off: Fri Jan 22 00:53:14 2021

Wall Time:       32.10 seconds

                                                       Time (seconds)
Module                                       User      System        Wall        Calls

--------------------------------------------------------------------------------------

**************************************************************************************

Host: n093

Timers On : Fri Jan 22 00:53:14 2021
Timers Off: Fri Jan 22 00:54:31 2021

Wall Time:       76.70 seconds

                                                       Time (seconds)
Module                                       User      System        Wall        Calls

--------------------------------------------------------------------------------------

**************************************************************************************

Host: n093

Timers On : Fri Jan 22 00:54:31 2021
Timers Off: Fri Jan 22 00:58:10 2021

Wall Time:      219.03 seconds

                                                       Time (seconds)
Module                                       User      System        Wall        Calls

--------------------------------------------------------------------------------------

**************************************************************************************

Host: n093

Timers On : Fri Jan 22 00:58:11 2021
Timers Off: Fri Jan 22 01:10:34 2021

Wall Time:      742.40 seconds

                                                       Time (seconds)
Module                                       User      System        Wall        Calls

--------------------------------------------------------------------------------------

**************************************************************************************

Host: n093

Timers On : Fri Jan 22 01:10:36 2021
Timers Off: Fri Jan 22 02:06:26 2021

Wall Time:     3350.71 seconds

                                                       Time (seconds)
Module                                       User      System        Wall        Calls

--------------------------------------------------------------------------------------

**************************************************************************************

Host: n093

Timers On : Fri Jan 22 02:06:34 2021
Timers Off: Fri Jan 22 07:55:07 2021

Wall Time:    20913.31 seconds

                                                       Time (seconds)
Module                                       User      System        Wall        Calls

--------------------------------------------------------------------------------------

**************************************************************************************
