
    -----------------------------------------------------------------------
          Psi4: An Open-Source Ab Initio Electronic Structure Package
                               Psi4 1.3.2 release

                         Git: Rev {HEAD} ecbda83 


    R. M. Parrish, L. A. Burns, D. G. A. Smith, A. C. Simmonett,
    A. E. DePrince III, E. G. Hohenstein, U. Bozkaya, A. Yu. Sokolov,
    R. Di Remigio, R. M. Richard, J. F. Gonthier, A. M. James,
    H. R. McAlexander, A. Kumar, M. Saitow, X. Wang, B. P. Pritchard,
    P. Verma, H. F. Schaefer III, K. Patkowski, R. A. King, E. F. Valeev,
    F. A. Evangelista, J. M. Turney, T. D. Crawford, and C. D. Sherrill,
    J. Chem. Theory Comput. 13(7) pp 3185--3197 (2017).
    (doi: 10.1021/acs.jctc.7b00174)


                         Additional Contributions by
    P. Kraus, H. Kruse, M. H. Lechner, M. C. Schieber, R. A. Shaw,
    A. Alenaizan, R. Galvelis, Z. L. Glick, S. Lehtola, and J. P. Misiewicz

    -----------------------------------------------------------------------


    Psi4 started on: Friday, 19 July 2019 05:55PM

    Process ID: 20026
    Host:       adabbott
    PSIDATADIR: /home/adabbott/anaconda3/envs/peslearn/share/psi4
    Memory:     500.0 MiB
    Threads:    1
    
  ==> Input File <==

--------------------------------------------------------------------------
# density fitted hartree fock 
molecule h2o {
0 1
H 0.0000000000 0.0000000000 1.0000000000
H 0.0000000000 0.7938566201 -0.4583333333
O 0.0000000000 0.0000000000 0.0000000000
}

set scf_type pk
set basis 6-31g
gradient('hf')

--------------------------------------------------------------------------
gradient() will perform analytic gradient computation.

*** tstart() called on adabbott
*** at Fri Jul 19 17:55:13 2019

   => Loading Basis Set <=

    Name: 6-31G
    Role: ORBITAL
    Keyword: BASIS
    atoms 1-2 entry H          line    26 file /home/adabbott/anaconda3/envs/peslearn/share/psi4/basis/6-31g.gbs 
    atoms 3   entry O          line   117 file /home/adabbott/anaconda3/envs/peslearn/share/psi4/basis/6-31g.gbs 


         ---------------------------------------------------------
                                   SCF
               by Justin Turney, Rob Parrish, Andy Simmonett
                          and Daniel G. A. Smith
                              RHF Reference
                        1 Threads,    500 MiB Core
         ---------------------------------------------------------

  ==> Geometry <==

    Molecular point group: cs
    Full point group: Cs

    Geometry (in Angstrom), charge = 0, multiplicity = 1:

       Center              X                  Y                   Z               Mass       
    ------------   -----------------  -----------------  -----------------  -----------------
         H            0.044422181524    -0.969689721816     0.000000000000     1.007825032230
         H           -0.749434438576     0.488643611484     0.000000000000     1.007825032230
         O            0.044422181524     0.030310278184     0.000000000000    15.994914619570

  Running in cs symmetry.

  Rotational constants: A =     41.37124  B =     12.08330  C =      9.35189 [cm^-1]
  Rotational constants: A = 1240278.72182  B = 362248.07403  C = 280362.59949 [MHz]
  Nuclear repulsion =    9.170395238843721

  Charge       = 0
  Multiplicity = 1
  Electrons    = 10
  Nalpha       = 5
  Nbeta        = 5

  ==> Algorithm <==

  SCF Algorithm Type is PK.
  DIIS enabled.
  MOM disabled.
  Fractional occupation disabled.
  Guess Type is SAD.
  Energy threshold   = 1.00e-08
  Density threshold  = 1.00e-08
  Integral threshold = 0.00e+00

  ==> Primary Basis <==

  Basis Set: 6-31G
    Blend: 6-31G
    Number of shells: 9
    Number of basis function: 13
    Number of Cartesian functions: 13
    Spherical Harmonics?: false
    Max angular momentum: 1

  ==> Pre-Iterations <==

   -------------------------------------------------------
    Irrep   Nso     Nmo     Nalpha   Nbeta   Ndocc  Nsocc
   -------------------------------------------------------
     A'        11      11       0       0       0       0
     A"         2       2       0       0       0       0
   -------------------------------------------------------
    Total      13      13       5       5       5       0
   -------------------------------------------------------

  ==> Integral Setup <==

  Using in-core PK algorithm.
   Calculation information:
      Number of atoms:                   3
      Number of AO shells:               9
      Number of primitives:             22
      Number of atomic orbitals:        13
      Number of basis functions:        13

      Integral cutoff                 1.00e-12
      Number of threads:                 1

  Performing in-core PK
  Using 8372 doubles for integral storage.
  We computed 1035 shell quartets total.
  Whereas there are 1035 unique shell quartets.

  ==> DiskJK: Disk-Based J/K Matrices <==

    J tasked:                  Yes
    K tasked:                  Yes
    wK tasked:                  No
    Memory [MiB]:              375
    Schwarz Cutoff:          1E-12

    OpenMP threads:              1

  Minimum eigenvalue in the overlap matrix is 7.0878239735E-02.
  Using Symmetric Orthogonalization.

  SCF Guess: Superposition of Atomic Densities via on-the-fly atomic UHF.

  ==> Iterations <==

                        Total Energy        Delta E     RMS |[F,P]|

   @RHF iter SAD:   -75.50653189666950   -7.55065e+01   0.00000e+00 
   @RHF iter   1:   -75.91050176597695   -4.03970e-01   3.58953e-02 DIIS
   @RHF iter   2:   -75.96102162576997   -5.05199e-02   2.05765e-02 DIIS
   @RHF iter   3:   -75.97931051985852   -1.82889e-02   1.70597e-03 DIIS
   @RHF iter   4:   -75.97964578962802   -3.35270e-04   3.26497e-04 DIIS
   @RHF iter   5:   -75.97966148892554   -1.56993e-05   5.74539e-05 DIIS
   @RHF iter   6:   -75.97966217335008   -6.84425e-07   1.33935e-05 DIIS
   @RHF iter   7:   -75.97966220974105   -3.63910e-08   2.03213e-06 DIIS
   @RHF iter   8:   -75.97966221040708   -6.66034e-10   2.88484e-07 DIIS
   @RHF iter   9:   -75.97966221041497   -7.88702e-12   3.06482e-08 DIIS
   @RHF iter  10:   -75.97966221041520   -2.27374e-13   4.30484e-09 DIIS
  Energy and wave function converged.


  ==> Post-Iterations <==

    Orbital Energies [Eh]
    ---------------------

    Doubly Occupied:                                                      

       1Ap   -20.547782     2Ap    -1.340561     3Ap    -0.733318  
       4Ap    -0.530950     1App   -0.493253  

    Virtual:                                                              

       5Ap     0.203272     6Ap     0.302403     7Ap     1.078288  
       2App    1.170823     8Ap     1.174096     9Ap     1.211458  
      10Ap     1.402133    11Ap     1.658974  

    Final Occupation by Irrep:
             Ap   App 
    DOCC [     4,    1 ]

  @RHF Final Energy:   -75.97966221041520

   => Energetics <=

    Nuclear Repulsion Energy =              9.1703952388437209
    One-Electron Energy =                -123.0083848540577094
    Two-Electron Energy =                  37.8583274047987857
    Total Energy =                        -75.9796622104151993

Computation Completed


Properties will be evaluated at   0.000000,   0.000000,   0.000000 [a0]

Properties computed using the SCF density matrix

  Nuclear Dipole Moment: [e a0]
     X:    -0.6607      Y:    -0.4508      Z:     0.0000

  Electronic Dipole Moment: [e a0]
     X:    -0.1180      Y:    -0.0359      Z:     0.0000

  Dipole Moment: [e a0]
     X:    -0.7787      Y:    -0.4867      Z:     0.0000     Total:     0.9183

  Dipole Moment: [D]
     X:    -1.9793      Y:    -1.2371      Z:     0.0000     Total:     2.3341


*** tstop() called on adabbott at Fri Jul 19 17:55:13 2019
Module time:
	user time   =       0.33 seconds =       0.01 minutes
	system time =       0.00 seconds =       0.00 minutes
	total time  =          0 seconds =       0.00 minutes
Total time:
	user time   =       0.33 seconds =       0.01 minutes
	system time =       0.00 seconds =       0.00 minutes
	total time  =          0 seconds =       0.00 minutes

*** tstart() called on adabbott
*** at Fri Jul 19 17:55:13 2019


         ------------------------------------------------------------
                                   SCF GRAD                          
                          Rob Parrish, Justin Turney,                
                       Andy Simmonett, and Alex Sokolov              
         ------------------------------------------------------------

  ==> Geometry <==

    Molecular point group: cs
    Full point group: Cs

    Geometry (in Angstrom), charge = 0, multiplicity = 1:

       Center              X                  Y                   Z               Mass       
    ------------   -----------------  -----------------  -----------------  -----------------
         H            0.044422181524    -0.969689721816     0.000000000000     1.007825032230
         H           -0.749434438576     0.488643611484     0.000000000000     1.007825032230
         O            0.044422181524     0.030310278184     0.000000000000    15.994914619570

  Nuclear repulsion =    9.170395238843721

  ==> Basis Set <==

  Basis Set: 6-31G
    Blend: 6-31G
    Number of shells: 9
    Number of basis function: 13
    Number of Cartesian functions: 13
    Spherical Harmonics?: false
    Max angular momentum: 1

  ==> DirectJKGrad: Integral-Direct SCF Gradients <==

    Gradient:                    1
    J tasked:                  Yes
    K tasked:                  Yes
    wK tasked:                  No
    Integrals threads:           1
    Schwarz Cutoff:          0E+00


  -Total Gradient:
     Atom            X                  Y                   Z
    ------   -----------------  -----------------  -----------------
       1        0.013057081320    -0.053841643356     0.000000000000
       2        0.039657556774    -0.006448646276     0.000000000000
       3       -0.052714638094     0.060290289631     0.000000000000


*** tstop() called on adabbott at Fri Jul 19 17:55:13 2019
Module time:
	user time   =       0.05 seconds =       0.00 minutes
	system time =       0.00 seconds =       0.00 minutes
	total time  =          0 seconds =       0.00 minutes
Total time:
	user time   =       0.38 seconds =       0.01 minutes
	system time =       0.00 seconds =       0.00 minutes
	total time  =          0 seconds =       0.00 minutes

    Psi4 stopped on: Friday, 19 July 2019 05:55PM
    Psi4 wall time for execution: 0:00:00.40

*** Psi4 exiting successfully. Buy a developer a beer!
