
    -----------------------------------------------------------------------
          Psi4: An Open-Source Ab Initio Electronic Structure Package
                               Psi4 1.3.2 release

                         Git: Rev {HEAD} ecbda83 


    R. M. Parrish, L. A. Burns, D. G. A. Smith, A. C. Simmonett,
    A. E. DePrince III, E. G. Hohenstein, U. Bozkaya, A. Yu. Sokolov,
    R. Di Remigio, R. M. Richard, J. F. Gonthier, A. M. James,
    H. R. McAlexander, A. Kumar, M. Saitow, X. Wang, B. P. Pritchard,
    P. Verma, H. F. Schaefer III, K. Patkowski, R. A. King, E. F. Valeev,
    F. A. Evangelista, J. M. Turney, T. D. Crawford, and C. D. Sherrill,
    J. Chem. Theory Comput. 13(7) pp 3185--3197 (2017).
    (doi: 10.1021/acs.jctc.7b00174)


                         Additional Contributions by
    P. Kraus, H. Kruse, M. H. Lechner, M. C. Schieber, R. A. Shaw,
    A. Alenaizan, R. Galvelis, Z. L. Glick, S. Lehtola, and J. P. Misiewicz

    -----------------------------------------------------------------------


    Psi4 started on: Friday, 19 July 2019 05:53PM

    Process ID: 19455
    Host:       adabbott
    PSIDATADIR: /home/adabbott/anaconda3/envs/peslearn/share/psi4
    Memory:     500.0 MiB
    Threads:    1
    
  ==> Input File <==

--------------------------------------------------------------------------
# density fitted hartree fock 
molecule h2o {
0 1
H 0.0000000000 0.0000000000 0.9000000000
H 0.0000000000 0.9100900367 -0.2724630711
O 0.0000000000 0.0000000000 0.0000000000
}

set scf_type pk
set basis 6-31g
gradient('hf')

--------------------------------------------------------------------------
gradient() will perform analytic gradient computation.

*** tstart() called on adabbott
*** at Fri Jul 19 17:53:11 2019

   => Loading Basis Set <=

    Name: 6-31G
    Role: ORBITAL
    Keyword: BASIS
    atoms 1-2 entry H          line    26 file /home/adabbott/anaconda3/envs/peslearn/share/psi4/basis/6-31g.gbs 
    atoms 3   entry O          line   117 file /home/adabbott/anaconda3/envs/peslearn/share/psi4/basis/6-31g.gbs 


         ---------------------------------------------------------
                                   SCF
               by Justin Turney, Rob Parrish, Andy Simmonett
                          and Daniel G. A. Smith
                              RHF Reference
                        1 Threads,    500 MiB Core
         ---------------------------------------------------------

  ==> Geometry <==

    Molecular point group: cs
    Full point group: Cs

    Geometry (in Angstrom), charge = 0, multiplicity = 1:

       Center              X                  Y                   Z               Mass       
    ------------   -----------------  -----------------  -----------------  -----------------
         H            0.050926305569    -0.864884642059     0.000000000000     1.007825032230
         H           -0.859163731131     0.307578429041     0.000000000000     1.007825032230
         O            0.050926305569     0.035115357941     0.000000000000    15.994914619570

  Running in cs symmetry.

  Rotational constants: A =     31.01735  B =     15.13944  C =     10.17370 [cm^-1]
  Rotational constants: A = 929876.73841  B = 453868.87110  C = 304999.77931 [MHz]
  Nuclear repulsion =    9.516560147642849

  Charge       = 0
  Multiplicity = 1
  Electrons    = 10
  Nalpha       = 5
  Nbeta        = 5

  ==> Algorithm <==

  SCF Algorithm Type is PK.
  DIIS enabled.
  MOM disabled.
  Fractional occupation disabled.
  Guess Type is SAD.
  Energy threshold   = 1.00e-08
  Density threshold  = 1.00e-08
  Integral threshold = 0.00e+00

  ==> Primary Basis <==

  Basis Set: 6-31G
    Blend: 6-31G
    Number of shells: 9
    Number of basis function: 13
    Number of Cartesian functions: 13
    Spherical Harmonics?: false
    Max angular momentum: 1

  ==> Pre-Iterations <==

   -------------------------------------------------------
    Irrep   Nso     Nmo     Nalpha   Nbeta   Ndocc  Nsocc
   -------------------------------------------------------
     A'        11      11       0       0       0       0
     A"         2       2       0       0       0       0
   -------------------------------------------------------
    Total      13      13       5       5       5       0
   -------------------------------------------------------

  ==> Integral Setup <==

  Using in-core PK algorithm.
   Calculation information:
      Number of atoms:                   3
      Number of AO shells:               9
      Number of primitives:             22
      Number of atomic orbitals:        13
      Number of basis functions:        13

      Integral cutoff                 1.00e-12
      Number of threads:                 1

  Performing in-core PK
  Using 8372 doubles for integral storage.
  We computed 1035 shell quartets total.
  Whereas there are 1035 unique shell quartets.

  ==> DiskJK: Disk-Based J/K Matrices <==

    J tasked:                  Yes
    K tasked:                  Yes
    wK tasked:                  No
    Memory [MiB]:              375
    Schwarz Cutoff:          1E-12

    OpenMP threads:              1

  Minimum eigenvalue in the overlap matrix is 6.3531361592E-02.
  Using Symmetric Orthogonalization.

  SCF Guess: Superposition of Atomic Densities via on-the-fly atomic UHF.

  ==> Iterations <==

                        Total Energy        Delta E     RMS |[F,P]|

   @RHF iter SAD:   -75.56903710894561   -7.55690e+01   0.00000e+00 
   @RHF iter   1:   -75.90924120416712   -3.40204e-01   3.64931e-02 DIIS
   @RHF iter   2:   -75.96359499060698   -5.43538e-02   2.02402e-02 DIIS
   @RHF iter   3:   -75.98115195071330   -1.75570e-02   1.67703e-03 DIIS
   @RHF iter   4:   -75.98143359412614   -2.81643e-04   2.70059e-04 DIIS
   @RHF iter   5:   -75.98144216177847   -8.56765e-06   4.31644e-05 DIIS
   @RHF iter   6:   -75.98144246859286   -3.06814e-07   7.64980e-06 DIIS
   @RHF iter   7:   -75.98144247873272   -1.01399e-08   1.42468e-06 DIIS
   @RHF iter   8:   -75.98144247907636   -3.43647e-10   2.50080e-07 DIIS
   @RHF iter   9:   -75.98144247908377   -7.40386e-12   2.51233e-08 DIIS
   @RHF iter  10:   -75.98144247908388   -1.13687e-13   2.99007e-09 DIIS
  Energy and wave function converged.


  ==> Post-Iterations <==

    Orbital Energies [Eh]
    ---------------------

    Doubly Occupied:                                                      

       1Ap   -20.552373     2Ap    -1.372628     3Ap    -0.732865  
       4Ap    -0.561088     1App   -0.502388  

    Virtual:                                                              

       5Ap     0.211178     6Ap     0.308616     7Ap     1.079077  
       2App    1.165104     8Ap     1.203790     9Ap     1.231965  
      10Ap     1.398855    11Ap     1.690487  

    Final Occupation by Irrep:
             Ap   App 
    DOCC [     4,    1 ]

  @RHF Final Energy:   -75.98144247908388

   => Energetics <=

    Nuclear Repulsion Energy =              9.5165601476428492
    One-Electron Energy =                -123.5533214206398043
    Two-Electron Energy =                  38.0553187939130808
    Total Energy =                        -75.9814424790838814

Computation Completed


Properties will be evaluated at   0.000000,   0.000000,   0.000000 [a0]

Properties computed using the SCF density matrix

  Nuclear Dipole Moment: [e a0]
     X:    -0.7575      Y:    -0.5223      Z:     0.0000

  Electronic Dipole Moment: [e a0]
     X:    -0.0632      Y:    -0.0744      Z:     0.0000

  Dipole Moment: [e a0]
     X:    -0.8206      Y:    -0.5967      Z:     0.0000     Total:     1.0146

  Dipole Moment: [D]
     X:    -2.0858      Y:    -1.5166      Z:     0.0000     Total:     2.5789


*** tstop() called on adabbott at Fri Jul 19 17:53:12 2019
Module time:
	user time   =       0.33 seconds =       0.01 minutes
	system time =       0.01 seconds =       0.00 minutes
	total time  =          1 seconds =       0.02 minutes
Total time:
	user time   =       0.33 seconds =       0.01 minutes
	system time =       0.01 seconds =       0.00 minutes
	total time  =          1 seconds =       0.02 minutes

*** tstart() called on adabbott
*** at Fri Jul 19 17:53:12 2019


         ------------------------------------------------------------
                                   SCF GRAD                          
                          Rob Parrish, Justin Turney,                
                       Andy Simmonett, and Alex Sokolov              
         ------------------------------------------------------------

  ==> Geometry <==

    Molecular point group: cs
    Full point group: Cs

    Geometry (in Angstrom), charge = 0, multiplicity = 1:

       Center              X                  Y                   Z               Mass       
    ------------   -----------------  -----------------  -----------------  -----------------
         H            0.050926305569    -0.864884642059     0.000000000000     1.007825032230
         H           -0.859163731131     0.307578429041     0.000000000000     1.007825032230
         O            0.050926305569     0.035115357941     0.000000000000    15.994914619570

  Nuclear repulsion =    9.516560147642849

  ==> Basis Set <==

  Basis Set: 6-31G
    Blend: 6-31G
    Number of shells: 9
    Number of basis function: 13
    Number of Cartesian functions: 13
    Spherical Harmonics?: false
    Max angular momentum: 1

  ==> DirectJKGrad: Integral-Direct SCF Gradients <==

    Gradient:                    1
    J tasked:                  Yes
    K tasked:                  Yes
    wK tasked:                  No
    Integrals threads:           1
    Schwarz Cutoff:          0E+00


  -Total Gradient:
     Atom            X                  Y                   Z
    ------   -----------------  -----------------  -----------------
       1       -0.011488161368     0.069884978120     0.000000000000
       2       -0.000807408101    -0.011119070786     0.000000000000
       3        0.012295569469    -0.058765907334     0.000000000000


*** tstop() called on adabbott at Fri Jul 19 17:53:12 2019
Module time:
	user time   =       0.04 seconds =       0.00 minutes
	system time =       0.00 seconds =       0.00 minutes
	total time  =          0 seconds =       0.00 minutes
Total time:
	user time   =       0.37 seconds =       0.01 minutes
	system time =       0.01 seconds =       0.00 minutes
	total time  =          1 seconds =       0.02 minutes

    Psi4 stopped on: Friday, 19 July 2019 05:53PM
    Psi4 wall time for execution: 0:00:00.39

*** Psi4 exiting successfully. Buy a developer a beer!
