
    -----------------------------------------------------------------------
          Psi4: An Open-Source Ab Initio Electronic Structure Package
                               Psi4 1.3.2 release

                         Git: Rev {HEAD} ecbda83 


    R. M. Parrish, L. A. Burns, D. G. A. Smith, A. C. Simmonett,
    A. E. DePrince III, E. G. Hohenstein, U. Bozkaya, A. Yu. Sokolov,
    R. Di Remigio, R. M. Richard, J. F. Gonthier, A. M. James,
    H. R. McAlexander, A. Kumar, M. Saitow, X. Wang, B. P. Pritchard,
    P. Verma, H. F. Schaefer III, K. Patkowski, R. A. King, E. F. Valeev,
    F. A. Evangelista, J. M. Turney, T. D. Crawford, and C. D. Sherrill,
    J. Chem. Theory Comput. 13(7) pp 3185--3197 (2017).
    (doi: 10.1021/acs.jctc.7b00174)


                         Additional Contributions by
    P. Kraus, H. Kruse, M. H. Lechner, M. C. Schieber, R. A. Shaw,
    A. Alenaizan, R. Galvelis, Z. L. Glick, S. Lehtola, and J. P. Misiewicz

    -----------------------------------------------------------------------


    Psi4 started on: Monday, 22 July 2019 01:03PM

    Process ID: 18567
    Host:       adabbott
    PSIDATADIR: /home/adabbott/anaconda3/envs/peslearn/share/psi4
    Memory:     500.0 MiB
    Threads:    1
    
  ==> Input File <==

--------------------------------------------------------------------------
# density fitted hartree fock 
molecule h2o {
0 1
H 0.0000000000 0.0000000000 0.9500000000
H 0.0000000000 0.9683942905 -0.1707540414
O 0.0000000000 0.0000000000 0.0000000000
}

set scf_type pk
set basis 6-31g
gradient('hf')

--------------------------------------------------------------------------
gradient() will perform analytic gradient computation.

*** tstart() called on adabbott
*** at Mon Jul 22 13:03:28 2019

   => Loading Basis Set <=

    Name: 6-31G
    Role: ORBITAL
    Keyword: BASIS
    atoms 1-2 entry H          line    26 file /home/adabbott/anaconda3/envs/peslearn/share/psi4/basis/6-31g.gbs 
    atoms 3   entry O          line   117 file /home/adabbott/anaconda3/envs/peslearn/share/psi4/basis/6-31g.gbs 


         ---------------------------------------------------------
                                   SCF
               by Justin Turney, Rob Parrish, Andy Simmonett
                          and Daniel G. A. Smith
                              RHF Reference
                        1 Threads,    500 MiB Core
         ---------------------------------------------------------

  ==> Geometry <==

    Molecular point group: cs
    Full point group: Cs

    Geometry (in Angstrom), charge = 0, multiplicity = 1:

       Center              X                  Y                   Z               Mass       
    ------------   -----------------  -----------------  -----------------  -----------------
         H            0.054188862157    -0.906395393642     0.000000000000     1.007825032230
         H           -0.914205428343     0.214358647758     0.000000000000     1.007825032230
         O            0.054188862157     0.043604606358     0.000000000000    15.994914619570

  Running in cs symmetry.

  Rotational constants: A =     24.46077  B =     15.21760  C =      9.38129 [cm^-1]
  Rotational constants: A = 733315.54266  B = 456212.28792  C = 281243.99689 [MHz]
  Nuclear repulsion =    9.118668380722575

  Charge       = 0
  Multiplicity = 1
  Electrons    = 10
  Nalpha       = 5
  Nbeta        = 5

  ==> Algorithm <==

  SCF Algorithm Type is PK.
  DIIS enabled.
  MOM disabled.
  Fractional occupation disabled.
  Guess Type is SAD.
  Energy threshold   = 1.00e-08
  Density threshold  = 1.00e-08
  Integral threshold = 0.00e+00

  ==> Primary Basis <==

  Basis Set: 6-31G
    Blend: 6-31G
    Number of shells: 9
    Number of basis function: 13
    Number of Cartesian functions: 13
    Spherical Harmonics?: false
    Max angular momentum: 1

  ==> Pre-Iterations <==

   -------------------------------------------------------
    Irrep   Nso     Nmo     Nalpha   Nbeta   Ndocc  Nsocc
   -------------------------------------------------------
     A'        11      11       0       0       0       0
     A"         2       2       0       0       0       0
   -------------------------------------------------------
    Total      13      13       5       5       5       0
   -------------------------------------------------------

  ==> Integral Setup <==

  Using in-core PK algorithm.
   Calculation information:
      Number of atoms:                   3
      Number of AO shells:               9
      Number of primitives:             22
      Number of atomic orbitals:        13
      Number of basis functions:        13

      Integral cutoff                 1.00e-12
      Number of threads:                 1

  Performing in-core PK
  Using 8372 doubles for integral storage.
  We computed 1035 shell quartets total.
  Whereas there are 1035 unique shell quartets.

  ==> DiskJK: Disk-Based J/K Matrices <==

    J tasked:                  Yes
    K tasked:                  Yes
    wK tasked:                  No
    Memory [MiB]:              375
    Schwarz Cutoff:          1E-12

    OpenMP threads:              1

  Minimum eigenvalue in the overlap matrix is 6.7779881720E-02.
  Using Symmetric Orthogonalization.

  SCF Guess: Superposition of Atomic Densities via on-the-fly atomic UHF.

  ==> Iterations <==

                        Total Energy        Delta E     RMS |[F,P]|

   @RHF iter SAD:   -75.51592726933374   -7.55159e+01   0.00000e+00 
   @RHF iter   1:   -75.90492034978021   -3.88993e-01   3.64101e-02 DIIS
   @RHF iter   2:   -75.96071361322284   -5.57933e-02   2.14936e-02 DIIS
   @RHF iter   3:   -75.98059834790374   -1.98847e-02   1.74703e-03 DIIS
   @RHF iter   4:   -75.98093395993661   -3.35612e-04   3.25933e-04 DIIS
   @RHF iter   5:   -75.98094564289653   -1.16830e-05   4.40019e-05 DIIS
   @RHF iter   6:   -75.98094592805012   -2.85154e-07   6.71595e-06 DIIS
   @RHF iter   7:   -75.98094593469844   -6.64832e-09   1.34343e-06 DIIS
   @RHF iter   8:   -75.98094593501710   -3.18664e-10   3.07914e-07 DIIS
   @RHF iter   9:   -75.98094593503194   -1.48361e-11   3.21247e-08 DIIS
   @RHF iter  10:   -75.98094593503218   -2.41585e-13   3.32463e-09 DIIS
  Energy and wave function converged.


  ==> Post-Iterations <==

    Orbital Energies [Eh]
    ---------------------

    Doubly Occupied:                                                      

       1Ap   -20.565557     2Ap    -1.356796     3Ap    -0.696981  
       4Ap    -0.567940     1App   -0.503128  

    Virtual:                                                              

       5Ap     0.200006     6Ap     0.296442     7Ap     1.029383  
       2App    1.162733     8Ap     1.188730     9Ap     1.228489  
      10Ap     1.373452    11Ap     1.711455  

    Final Occupation by Irrep:
             Ap   App 
    DOCC [     4,    1 ]

  @RHF Final Energy:   -75.98094593503218

   => Energetics <=

    Nuclear Repulsion Energy =              9.1186683807225748
    One-Electron Energy =                -122.8184262330282195
    Two-Electron Energy =                  37.7188119172734773
    Total Energy =                        -75.9809459350321674

Computation Completed


Properties will be evaluated at   0.000000,   0.000000,   0.000000 [a0]

Properties computed using the SCF density matrix

  Nuclear Dipole Moment: [e a0]
     X:    -0.8060      Y:    -0.6486      Z:     0.0000

  Electronic Dipole Moment: [e a0]
     X:    -0.0125      Y:    -0.0335      Z:     0.0000

  Dipole Moment: [e a0]
     X:    -0.8185      Y:    -0.6820      Z:     0.0000     Total:     1.0654

  Dipole Moment: [D]
     X:    -2.0804      Y:    -1.7335      Z:     0.0000     Total:     2.7080


*** tstop() called on adabbott at Mon Jul 22 13:03:29 2019
Module time:
	user time   =       0.29 seconds =       0.00 minutes
	system time =       0.01 seconds =       0.00 minutes
	total time  =          1 seconds =       0.02 minutes
Total time:
	user time   =       0.29 seconds =       0.00 minutes
	system time =       0.01 seconds =       0.00 minutes
	total time  =          1 seconds =       0.02 minutes

*** tstart() called on adabbott
*** at Mon Jul 22 13:03:29 2019


         ------------------------------------------------------------
                                   SCF GRAD                          
                          Rob Parrish, Justin Turney,                
                       Andy Simmonett, and Alex Sokolov              
         ------------------------------------------------------------

  ==> Geometry <==

    Molecular point group: cs
    Full point group: Cs

    Geometry (in Angstrom), charge = 0, multiplicity = 1:

       Center              X                  Y                   Z               Mass       
    ------------   -----------------  -----------------  -----------------  -----------------
         H            0.054188862157    -0.906395393642     0.000000000000     1.007825032230
         H           -0.914205428343     0.214358647758     0.000000000000     1.007825032230
         O            0.054188862157     0.043604606358     0.000000000000    15.994914619570

  Nuclear repulsion =    9.118668380722575

  ==> Basis Set <==

  Basis Set: 6-31G
    Blend: 6-31G
    Number of shells: 9
    Number of basis function: 13
    Number of Cartesian functions: 13
    Spherical Harmonics?: false
    Max angular momentum: 1

  ==> DirectJKGrad: Integral-Direct SCF Gradients <==

    Gradient:                    1
    J tasked:                  Yes
    K tasked:                  Yes
    wK tasked:                  No
    Integrals threads:           1
    Schwarz Cutoff:          0E+00


  -Total Gradient:
     Atom            X                  Y                   Z
    ------   -----------------  -----------------  -----------------
       1       -0.020296168343     0.008111492845     0.000000000000
       2       -0.028223112808    -0.014934153036     0.000000000000
       3        0.048519281151     0.006822660191     0.000000000000


*** tstop() called on adabbott at Mon Jul 22 13:03:29 2019
Module time:
	user time   =       0.05 seconds =       0.00 minutes
	system time =       0.00 seconds =       0.00 minutes
	total time  =          0 seconds =       0.00 minutes
Total time:
	user time   =       0.34 seconds =       0.01 minutes
	system time =       0.01 seconds =       0.00 minutes
	total time  =          1 seconds =       0.02 minutes

    Psi4 stopped on: Monday, 22 July 2019 01:03PM
    Psi4 wall time for execution: 0:00:00.36

*** Psi4 exiting successfully. Buy a developer a beer!
