
Host: adabbott

Timers On : Wed Feb 17 12:13:10 2021
Timers Off: Wed Feb 17 12:13:11 2021

Wall Time:        0.92 seconds

                                                       Time (seconds)
Module                                       User      System        Wall        Calls

--------------------------------------------------------------------------------------

**************************************************************************************

Host: adabbott

Timers On : Wed Feb 17 12:13:26 2021
Timers Off: Wed Feb 17 12:13:26 2021

Wall Time:        0.84 seconds

                                                       Time (seconds)
Module                                       User      System        Wall        Calls

--------------------------------------------------------------------------------------

**************************************************************************************

Host: adabbott

Timers On : Wed Feb 17 12:13:42 2021
Timers Off: Wed Feb 17 12:13:43 2021

Wall Time:        0.88 seconds

                                                       Time (seconds)
Module                                       User      System        Wall        Calls

--------------------------------------------------------------------------------------

**************************************************************************************

Host: adabbott

Timers On : Wed Feb 17 12:38:59 2021
Timers Off: Wed Feb 17 12:39:01 2021

Wall Time:        1.71 seconds

                                                       Time (seconds)
Module                                       User      System        Wall        Calls

--------------------------------------------------------------------------------------

**************************************************************************************

Host: adabbott

Timers On : Wed Feb 17 12:18:57 2021
Timers Off: Wed Feb 17 12:49:42 2021

Wall Time:     1845.06 seconds

                                                       Time (seconds)
Module                                       User      System        Wall        Calls

--------------------------------------------------------------------------------------

**************************************************************************************
