
    -----------------------------------------------------------------------
          Psi4: An Open-Source Ab Initio Electronic Structure Package
                               Psi4 1.3.2 release

                         Git: Rev {HEAD} ecbda83 


    R. M. Parrish, L. A. Burns, D. G. A. Smith, A. C. Simmonett,
    A. E. DePrince III, E. G. Hohenstein, U. Bozkaya, A. Yu. Sokolov,
    R. Di Remigio, R. M. Richard, J. F. Gonthier, A. M. James,
    H. R. McAlexander, A. Kumar, M. Saitow, X. Wang, B. P. Pritchard,
    P. Verma, H. F. Schaefer III, K. Patkowski, R. A. King, E. F. Valeev,
    F. A. Evangelista, J. M. Turney, T. D. Crawford, and C. D. Sherrill,
    J. Chem. Theory Comput. 13(7) pp 3185--3197 (2017).
    (doi: 10.1021/acs.jctc.7b00174)


                         Additional Contributions by
    P. Kraus, H. Kruse, M. H. Lechner, M. C. Schieber, R. A. Shaw,
    A. Alenaizan, R. Galvelis, Z. L. Glick, S. Lehtola, and J. P. Misiewicz

    -----------------------------------------------------------------------


    Psi4 started on: Friday, 19 July 2019 05:54PM

    Process ID: 19753
    Host:       adabbott
    PSIDATADIR: /home/adabbott/anaconda3/envs/peslearn/share/psi4
    Memory:     500.0 MiB
    Threads:    1
    
  ==> Input File <==

--------------------------------------------------------------------------
# density fitted hartree fock 
molecule h2o {
0 1
H 0.0000000000 0.0000000000 0.9333333333
H 0.0000000000 0.8263944962 -0.3564717894
O 0.0000000000 0.0000000000 0.0000000000
}

set scf_type pk
set basis 6-31g
gradient('hf')

--------------------------------------------------------------------------
gradient() will perform analytic gradient computation.

*** tstart() called on adabbott
*** at Fri Jul 19 17:54:09 2019

   => Loading Basis Set <=

    Name: 6-31G
    Role: ORBITAL
    Keyword: BASIS
    atoms 1-2 entry H          line    26 file /home/adabbott/anaconda3/envs/peslearn/share/psi4/basis/6-31g.gbs 
    atoms 3   entry O          line   117 file /home/adabbott/anaconda3/envs/peslearn/share/psi4/basis/6-31g.gbs 


         ---------------------------------------------------------
                                   SCF
               by Justin Turney, Rob Parrish, Andy Simmonett
                          and Daniel G. A. Smith
                              RHF Reference
                        1 Threads,    500 MiB Core
         ---------------------------------------------------------

  ==> Geometry <==

    Molecular point group: cs
    Full point group: Cs

    Geometry (in Angstrom), charge = 0, multiplicity = 1:

       Center              X                  Y                   Z               Mass       
    ------------   -----------------  -----------------  -----------------  -----------------
         H            0.046242917664    -0.901053640005     0.000000000000     1.007825032230
         H           -0.780151578536     0.388751482695     0.000000000000     1.007825032230
         O            0.046242917664     0.032279693295     0.000000000000    15.994914619570

  Running in cs symmetry.

  Rotational constants: A =     37.18156  B =     14.24269  C =     10.29797 [cm^-1]
  Rotational constants: A = 1114675.24465  B = 426985.15692  C = 308725.43899 [MHz]
  Nuclear repulsion =    9.585054741681112

  Charge       = 0
  Multiplicity = 1
  Electrons    = 10
  Nalpha       = 5
  Nbeta        = 5

  ==> Algorithm <==

  SCF Algorithm Type is PK.
  DIIS enabled.
  MOM disabled.
  Fractional occupation disabled.
  Guess Type is SAD.
  Energy threshold   = 1.00e-08
  Density threshold  = 1.00e-08
  Integral threshold = 0.00e+00

  ==> Primary Basis <==

  Basis Set: 6-31G
    Blend: 6-31G
    Number of shells: 9
    Number of basis function: 13
    Number of Cartesian functions: 13
    Spherical Harmonics?: false
    Max angular momentum: 1

  ==> Pre-Iterations <==

   -------------------------------------------------------
    Irrep   Nso     Nmo     Nalpha   Nbeta   Ndocc  Nsocc
   -------------------------------------------------------
     A'        11      11       0       0       0       0
     A"         2       2       0       0       0       0
   -------------------------------------------------------
    Total      13      13       5       5       5       0
   -------------------------------------------------------

  ==> Integral Setup <==

  Using in-core PK algorithm.
   Calculation information:
      Number of atoms:                   3
      Number of AO shells:               9
      Number of primitives:             22
      Number of atomic orbitals:        13
      Number of basis functions:        13

      Integral cutoff                 1.00e-12
      Number of threads:                 1

  Performing in-core PK
  Using 8372 doubles for integral storage.
  We computed 1035 shell quartets total.
  Whereas there are 1035 unique shell quartets.

  ==> DiskJK: Disk-Based J/K Matrices <==

    J tasked:                  Yes
    K tasked:                  Yes
    wK tasked:                  No
    Memory [MiB]:              375
    Schwarz Cutoff:          1E-12

    OpenMP threads:              1

  Minimum eigenvalue in the overlap matrix is 6.4496608421E-02.
  Using Symmetric Orthogonalization.

  SCF Guess: Superposition of Atomic Densities via on-the-fly atomic UHF.

  ==> Iterations <==

                        Total Energy        Delta E     RMS |[F,P]|

   @RHF iter SAD:   -75.57415724447254   -7.55742e+01   0.00000e+00 
   @RHF iter   1:   -75.91268523682787   -3.38528e-01   3.62977e-02 DIIS
   @RHF iter   2:   -75.96510322769495   -5.24180e-02   1.98141e-02 DIIS
   @RHF iter   3:   -75.98194255132543   -1.68393e-02   1.65056e-03 DIIS
   @RHF iter   4:   -75.98221049460486   -2.67943e-04   2.56564e-04 DIIS
   @RHF iter   5:   -75.98221892272437   -8.42812e-06   4.47924e-05 DIIS
   @RHF iter   6:   -75.98221929088317   -3.68159e-07   8.79550e-06 DIIS
   @RHF iter   7:   -75.98221930534274   -1.44596e-08   1.45849e-06 DIIS
   @RHF iter   8:   -75.98221930568114   -3.38403e-10   2.23435e-07 DIIS
   @RHF iter   9:   -75.98221930568612   -4.97380e-12   2.23713e-08 DIIS
   @RHF iter  10:   -75.98221930568623   -1.13687e-13   2.64051e-09 DIIS
  Energy and wave function converged.


  ==> Post-Iterations <==

    Orbital Energies [Eh]
    ---------------------

    Doubly Occupied:                                                      

       1Ap   -20.545874     2Ap    -1.369211     3Ap    -0.749644  
       4Ap    -0.549664     1App   -0.499839  

    Virtual:                                                              

       5Ap     0.215086     6Ap     0.310772     7Ap     1.129880  
       2App    1.167434     8Ap     1.184599     9Ap     1.213021  
      10Ap     1.405422    11Ap     1.674970  

    Final Occupation by Irrep:
             Ap   App 
    DOCC [     4,    1 ]

  @RHF Final Energy:   -75.98221930568623

   => Energetics <=

    Nuclear Repulsion Energy =              9.5850547416811125
    One-Electron Energy =                -123.7060841999596619
    Two-Electron Energy =                  38.1388101525923133
    Total Energy =                        -75.9822193056862289

Computation Completed


Properties will be evaluated at   0.000000,   0.000000,   0.000000 [a0]

Properties computed using the SCF density matrix

  Nuclear Dipole Moment: [e a0]
     X:    -0.6878      Y:    -0.4801      Z:     0.0000

  Electronic Dipole Moment: [e a0]
     X:    -0.1117      Y:    -0.0586      Z:     0.0000

  Dipole Moment: [e a0]
     X:    -0.7995      Y:    -0.5388      Z:     0.0000     Total:     0.9641

  Dipole Moment: [D]
     X:    -2.0322      Y:    -1.3694      Z:     0.0000     Total:     2.4505


*** tstop() called on adabbott at Fri Jul 19 17:54:10 2019
Module time:
	user time   =       0.32 seconds =       0.01 minutes
	system time =       0.02 seconds =       0.00 minutes
	total time  =          1 seconds =       0.02 minutes
Total time:
	user time   =       0.32 seconds =       0.01 minutes
	system time =       0.02 seconds =       0.00 minutes
	total time  =          1 seconds =       0.02 minutes

*** tstart() called on adabbott
*** at Fri Jul 19 17:54:10 2019


         ------------------------------------------------------------
                                   SCF GRAD                          
                          Rob Parrish, Justin Turney,                
                       Andy Simmonett, and Alex Sokolov              
         ------------------------------------------------------------

  ==> Geometry <==

    Molecular point group: cs
    Full point group: Cs

    Geometry (in Angstrom), charge = 0, multiplicity = 1:

       Center              X                  Y                   Z               Mass       
    ------------   -----------------  -----------------  -----------------  -----------------
         H            0.046242917664    -0.901053640005     0.000000000000     1.007825032230
         H           -0.780151578536     0.388751482695     0.000000000000     1.007825032230
         O            0.046242917664     0.032279693295     0.000000000000    15.994914619570

  Nuclear repulsion =    9.585054741681112

  ==> Basis Set <==

  Basis Set: 6-31G
    Blend: 6-31G
    Number of shells: 9
    Number of basis function: 13
    Number of Cartesian functions: 13
    Spherical Harmonics?: false
    Max angular momentum: 1

  ==> DirectJKGrad: Integral-Direct SCF Gradients <==

    Gradient:                    1
    J tasked:                  Yes
    K tasked:                  Yes
    wK tasked:                  No
    Integrals threads:           1
    Schwarz Cutoff:          0E+00


  -Total Gradient:
     Atom            X                  Y                   Z
    ------   -----------------  -----------------  -----------------
       1        0.000317946132     0.017188489371     0.000000000000
       2        0.059828537376    -0.025448422865     0.000000000000
       3       -0.060146483508     0.008259933495     0.000000000000


*** tstop() called on adabbott at Fri Jul 19 17:54:10 2019
Module time:
	user time   =       0.04 seconds =       0.00 minutes
	system time =       0.00 seconds =       0.00 minutes
	total time  =          0 seconds =       0.00 minutes
Total time:
	user time   =       0.36 seconds =       0.01 minutes
	system time =       0.02 seconds =       0.00 minutes
	total time  =          1 seconds =       0.02 minutes

    Psi4 stopped on: Friday, 19 July 2019 05:54PM
    Psi4 wall time for execution: 0:00:00.39

*** Psi4 exiting successfully. Buy a developer a beer!
