
Host: adabbott

Timers On : Mon Dec  7 14:25:54 2020
Timers Off: Mon Dec  7 14:29:12 2020

Wall Time:      198.54 seconds

                                                       Time (seconds)
Module                                       User      System        Wall        Calls

--------------------------------------------------------------------------------------

**************************************************************************************

Host: adabbott

Timers On : Mon Dec  7 14:32:22 2020
Timers Off: Mon Dec  7 14:32:23 2020

Wall Time:        0.79 seconds

                                                       Time (seconds)
Module                                       User      System        Wall        Calls

--------------------------------------------------------------------------------------

**************************************************************************************

Host: adabbott

Timers On : Mon Dec  7 14:32:49 2020
Timers Off: Mon Dec  7 14:32:57 2020

Wall Time:        7.94 seconds

                                                       Time (seconds)
Module                                       User      System        Wall        Calls

--------------------------------------------------------------------------------------

**************************************************************************************

Host: adabbott

Timers On : Mon Dec  7 14:47:28 2020
Timers Off: Mon Dec  7 14:47:29 2020

Wall Time:        0.78 seconds

                                                       Time (seconds)
Module                                       User      System        Wall        Calls

--------------------------------------------------------------------------------------

**************************************************************************************

Host: adabbott

Timers On : Mon Dec  7 14:48:24 2020
Timers Off: Mon Dec  7 14:48:25 2020

Wall Time:        0.78 seconds

                                                       Time (seconds)
Module                                       User      System        Wall        Calls

--------------------------------------------------------------------------------------

**************************************************************************************

Host: adabbott

Timers On : Mon Dec  7 14:37:49 2020
Timers Off: Mon Dec  7 14:48:38 2020

Wall Time:      648.44 seconds

                                                       Time (seconds)
Module                                       User      System        Wall        Calls

--------------------------------------------------------------------------------------

**************************************************************************************

Host: adabbott

Timers On : Mon Dec  7 14:49:58 2020
Timers Off: Mon Dec  7 14:50:21 2020

Wall Time:       23.32 seconds

                                                       Time (seconds)
Module                                       User      System        Wall        Calls

--------------------------------------------------------------------------------------

**************************************************************************************

Host: adabbott

Timers On : Mon Dec  7 14:52:17 2020
Timers Off: Mon Dec  7 14:52:28 2020

Wall Time:       10.97 seconds

                                                       Time (seconds)
Module                                       User      System        Wall        Calls

--------------------------------------------------------------------------------------

**************************************************************************************

Host: adabbott

Timers On : Mon Dec  7 14:52:34 2020
Timers Off: Mon Dec  7 14:52:40 2020

Wall Time:        5.85 seconds

                                                       Time (seconds)
Module                                       User      System        Wall        Calls

--------------------------------------------------------------------------------------

**************************************************************************************

Host: adabbott

Timers On : Mon Dec  7 14:56:49 2020
Timers Off: Mon Dec  7 14:56:53 2020

Wall Time:        3.31 seconds

                                                       Time (seconds)
Module                                       User      System        Wall        Calls

--------------------------------------------------------------------------------------

**************************************************************************************

Host: adabbott

Timers On : Mon Dec  7 14:56:53 2020
Timers Off: Mon Dec  7 14:56:59 2020

Wall Time:        5.72 seconds

                                                       Time (seconds)
Module                                       User      System        Wall        Calls

--------------------------------------------------------------------------------------

**************************************************************************************

Host: adabbott

Timers On : Mon Dec  7 14:56:59 2020
Timers Off: Mon Dec  7 14:57:10 2020

Wall Time:       10.92 seconds

                                                       Time (seconds)
Module                                       User      System        Wall        Calls

--------------------------------------------------------------------------------------

**************************************************************************************

Host: adabbott

Timers On : Mon Dec  7 14:57:10 2020
Timers Off: Mon Dec  7 14:57:34 2020

Wall Time:       23.82 seconds

                                                       Time (seconds)
Module                                       User      System        Wall        Calls

--------------------------------------------------------------------------------------

**************************************************************************************

Host: adabbott

Timers On : Mon Dec  7 14:57:34 2020
Timers Off: Mon Dec  7 14:57:38 2020

Wall Time:        4.68 seconds

                                                       Time (seconds)
Module                                       User      System        Wall        Calls

--------------------------------------------------------------------------------------

**************************************************************************************

Host: adabbott

Timers On : Mon Dec  7 14:57:39 2020
Timers Off: Mon Dec  7 14:57:47 2020

Wall Time:        8.28 seconds

                                                       Time (seconds)
Module                                       User      System        Wall        Calls

--------------------------------------------------------------------------------------

**************************************************************************************

Host: adabbott

Timers On : Mon Dec  7 14:57:47 2020
Timers Off: Mon Dec  7 14:58:02 2020

Wall Time:       15.48 seconds

                                                       Time (seconds)
Module                                       User      System        Wall        Calls

--------------------------------------------------------------------------------------

**************************************************************************************

Host: adabbott

Timers On : Mon Dec  7 14:58:03 2020
Timers Off: Mon Dec  7 14:58:34 2020

Wall Time:       31.65 seconds

                                                       Time (seconds)
Module                                       User      System        Wall        Calls

--------------------------------------------------------------------------------------

**************************************************************************************

Host: adabbott

Timers On : Mon Dec  7 15:01:13 2020
Timers Off: Mon Dec  7 15:01:16 2020

Wall Time:        3.32 seconds

                                                       Time (seconds)
Module                                       User      System        Wall        Calls

--------------------------------------------------------------------------------------

**************************************************************************************

Host: adabbott

Timers On : Mon Dec  7 15:01:16 2020
Timers Off: Mon Dec  7 15:01:22 2020

Wall Time:        5.81 seconds

                                                       Time (seconds)
Module                                       User      System        Wall        Calls

--------------------------------------------------------------------------------------

**************************************************************************************

Host: adabbott

Timers On : Mon Dec  7 15:01:22 2020
Timers Off: Mon Dec  7 15:01:33 2020

Wall Time:       11.03 seconds

                                                       Time (seconds)
Module                                       User      System        Wall        Calls

--------------------------------------------------------------------------------------

**************************************************************************************

Host: adabbott

Timers On : Mon Dec  7 15:01:33 2020
Timers Off: Mon Dec  7 15:01:57 2020

Wall Time:       23.89 seconds

                                                       Time (seconds)
Module                                       User      System        Wall        Calls

--------------------------------------------------------------------------------------

**************************************************************************************

Host: adabbott

Timers On : Mon Dec  7 15:01:58 2020
Timers Off: Mon Dec  7 15:02:02 2020

Wall Time:        4.70 seconds

                                                       Time (seconds)
Module                                       User      System        Wall        Calls

--------------------------------------------------------------------------------------

**************************************************************************************

Host: adabbott

Timers On : Mon Dec  7 15:02:02 2020
Timers Off: Mon Dec  7 15:02:11 2020

Wall Time:        8.25 seconds

                                                       Time (seconds)
Module                                       User      System        Wall        Calls

--------------------------------------------------------------------------------------

**************************************************************************************

Host: adabbott

Timers On : Mon Dec  7 15:02:11 2020
Timers Off: Mon Dec  7 15:02:26 2020

Wall Time:       15.29 seconds

                                                       Time (seconds)
Module                                       User      System        Wall        Calls

--------------------------------------------------------------------------------------

**************************************************************************************

Host: adabbott

Timers On : Mon Dec  7 15:02:26 2020
Timers Off: Mon Dec  7 15:02:59 2020

Wall Time:       32.98 seconds

                                                       Time (seconds)
Module                                       User      System        Wall        Calls

--------------------------------------------------------------------------------------

**************************************************************************************

Host: adabbott

Timers On : Mon Dec  7 15:02:59 2020
Timers Off: Mon Dec  7 15:03:24 2020

Wall Time:       24.67 seconds

                                                       Time (seconds)
Module                                       User      System        Wall        Calls

--------------------------------------------------------------------------------------

**************************************************************************************

Host: adabbott

Timers On : Mon Dec  7 15:03:24 2020
Timers Off: Mon Dec  7 15:04:37 2020

Wall Time:       72.60 seconds

                                                       Time (seconds)
Module                                       User      System        Wall        Calls

--------------------------------------------------------------------------------------

**************************************************************************************

Host: adabbott

Timers On : Mon Dec  7 15:04:37 2020
Timers Off: Mon Dec  7 15:07:56 2020

Wall Time:      198.49 seconds

                                                       Time (seconds)
Module                                       User      System        Wall        Calls

--------------------------------------------------------------------------------------

**************************************************************************************

Host: adabbott

Timers On : Mon Dec  7 15:07:56 2020
Timers Off: Mon Dec  7 15:19:34 2020

Wall Time:      698.07 seconds

                                                       Time (seconds)
Module                                       User      System        Wall        Calls

--------------------------------------------------------------------------------------

**************************************************************************************

Host: adabbott

Timers On : Mon Dec  7 15:21:08 2020
Timers Off: Mon Dec  7 15:21:11 2020

Wall Time:        3.33 seconds

                                                       Time (seconds)
Module                                       User      System        Wall        Calls

--------------------------------------------------------------------------------------

**************************************************************************************

Host: adabbott

Timers On : Mon Dec  7 15:21:11 2020
Timers Off: Mon Dec  7 15:21:17 2020

Wall Time:        5.79 seconds

                                                       Time (seconds)
Module                                       User      System        Wall        Calls

--------------------------------------------------------------------------------------

**************************************************************************************

Host: adabbott

Timers On : Mon Dec  7 15:21:17 2020
Timers Off: Mon Dec  7 15:21:28 2020

Wall Time:       11.02 seconds

                                                       Time (seconds)
Module                                       User      System        Wall        Calls

--------------------------------------------------------------------------------------

**************************************************************************************

Host: adabbott

Timers On : Mon Dec  7 15:21:28 2020
Timers Off: Mon Dec  7 15:21:52 2020

Wall Time:       23.79 seconds

                                                       Time (seconds)
Module                                       User      System        Wall        Calls

--------------------------------------------------------------------------------------

**************************************************************************************

Host: adabbott

Timers On : Mon Dec  7 15:21:52 2020
Timers Off: Mon Dec  7 15:21:57 2020

Wall Time:        4.66 seconds

                                                       Time (seconds)
Module                                       User      System        Wall        Calls

--------------------------------------------------------------------------------------

**************************************************************************************

Host: adabbott

Timers On : Mon Dec  7 15:21:57 2020
Timers Off: Mon Dec  7 15:22:05 2020

Wall Time:        8.28 seconds

                                                       Time (seconds)
Module                                       User      System        Wall        Calls

--------------------------------------------------------------------------------------

**************************************************************************************

Host: adabbott

Timers On : Mon Dec  7 15:22:05 2020
Timers Off: Mon Dec  7 15:22:21 2020

Wall Time:       15.41 seconds

                                                       Time (seconds)
Module                                       User      System        Wall        Calls

--------------------------------------------------------------------------------------

**************************************************************************************

Host: adabbott

Timers On : Mon Dec  7 15:22:21 2020
Timers Off: Mon Dec  7 15:22:53 2020

Wall Time:       31.68 seconds

                                                       Time (seconds)
Module                                       User      System        Wall        Calls

--------------------------------------------------------------------------------------

**************************************************************************************

Host: adabbott

Timers On : Mon Dec  7 15:22:53 2020
Timers Off: Mon Dec  7 15:23:17 2020

Wall Time:       23.84 seconds

                                                       Time (seconds)
Module                                       User      System        Wall        Calls

--------------------------------------------------------------------------------------

**************************************************************************************

Host: adabbott

Timers On : Mon Dec  7 15:23:17 2020
Timers Off: Mon Dec  7 15:24:27 2020

Wall Time:       70.39 seconds

                                                       Time (seconds)
Module                                       User      System        Wall        Calls

--------------------------------------------------------------------------------------

**************************************************************************************

Host: adabbott

Timers On : Mon Dec  7 15:24:45 2020
Timers Off: Mon Dec  7 15:25:19 2020

Wall Time:       34.75 seconds

                                                       Time (seconds)
Module                                       User      System        Wall        Calls

--------------------------------------------------------------------------------------

**************************************************************************************

Host: adabbott

Timers On : Mon Dec  7 16:28:31 2020
Timers Off: Mon Dec  7 16:41:52 2020

Wall Time:      800.49 seconds

                                                       Time (seconds)
Module                                       User      System        Wall        Calls

--------------------------------------------------------------------------------------

**************************************************************************************

Host: adabbott

Timers On : Mon Dec  7 16:41:54 2020
Timers Off: Mon Dec  7 16:41:57 2020

Wall Time:        3.36 seconds

                                                       Time (seconds)
Module                                       User      System        Wall        Calls

--------------------------------------------------------------------------------------

**************************************************************************************

Host: adabbott

Timers On : Mon Dec  7 16:41:57 2020
Timers Off: Mon Dec  7 16:42:03 2020

Wall Time:        5.88 seconds

                                                       Time (seconds)
Module                                       User      System        Wall        Calls

--------------------------------------------------------------------------------------

**************************************************************************************

Host: adabbott

Timers On : Mon Dec  7 16:42:03 2020
Timers Off: Mon Dec  7 16:42:15 2020

Wall Time:       11.29 seconds

                                                       Time (seconds)
Module                                       User      System        Wall        Calls

--------------------------------------------------------------------------------------

**************************************************************************************

Host: adabbott

Timers On : Mon Dec  7 16:42:15 2020
Timers Off: Mon Dec  7 16:42:39 2020

Wall Time:       24.33 seconds

                                                       Time (seconds)
Module                                       User      System        Wall        Calls

--------------------------------------------------------------------------------------

**************************************************************************************

Host: adabbott

Timers On : Mon Dec  7 16:42:39 2020
Timers Off: Mon Dec  7 16:42:44 2020

Wall Time:        4.73 seconds

                                                       Time (seconds)
Module                                       User      System        Wall        Calls

--------------------------------------------------------------------------------------

**************************************************************************************

Host: adabbott

Timers On : Mon Dec  7 16:42:44 2020
Timers Off: Mon Dec  7 16:42:53 2020

Wall Time:        8.36 seconds

                                                       Time (seconds)
Module                                       User      System        Wall        Calls

--------------------------------------------------------------------------------------

**************************************************************************************

Host: adabbott

Timers On : Mon Dec  7 16:42:53 2020
Timers Off: Mon Dec  7 16:43:08 2020

Wall Time:       15.57 seconds

                                                       Time (seconds)
Module                                       User      System        Wall        Calls

--------------------------------------------------------------------------------------

**************************************************************************************

Host: adabbott

Timers On : Mon Dec  7 16:43:09 2020
Timers Off: Mon Dec  7 16:43:41 2020

Wall Time:       32.13 seconds

                                                       Time (seconds)
Module                                       User      System        Wall        Calls

--------------------------------------------------------------------------------------

**************************************************************************************

Host: adabbott

Timers On : Mon Dec  7 16:43:41 2020
Timers Off: Mon Dec  7 16:44:05 2020

Wall Time:       23.66 seconds

                                                       Time (seconds)
Module                                       User      System        Wall        Calls

--------------------------------------------------------------------------------------

**************************************************************************************

Host: adabbott

Timers On : Mon Dec  7 16:44:05 2020
Timers Off: Mon Dec  7 16:45:11 2020

Wall Time:       66.49 seconds

                                                       Time (seconds)
Module                                       User      System        Wall        Calls

--------------------------------------------------------------------------------------

**************************************************************************************

Host: adabbott

Timers On : Mon Dec  7 16:45:12 2020
Timers Off: Mon Dec  7 16:48:20 2020

Wall Time:      188.74 seconds

                                                       Time (seconds)
Module                                       User      System        Wall        Calls

--------------------------------------------------------------------------------------

**************************************************************************************

Host: adabbott

Timers On : Mon Dec  7 16:48:21 2020
Timers Off: Mon Dec  7 16:59:55 2020

Wall Time:      694.34 seconds

                                                       Time (seconds)
Module                                       User      System        Wall        Calls

--------------------------------------------------------------------------------------

**************************************************************************************

Host: adabbott

Timers On : Tue Dec  8 14:04:45 2020
Timers Off: Tue Dec  8 14:05:03 2020

Wall Time:       17.63 seconds

                                                       Time (seconds)
Module                                       User      System        Wall        Calls

--------------------------------------------------------------------------------------

**************************************************************************************

Host: adabbott

Timers On : Tue Dec  8 14:05:52 2020
Timers Off: Tue Dec  8 14:06:18 2020

Wall Time:       25.75 seconds

                                                       Time (seconds)
Module                                       User      System        Wall        Calls

--------------------------------------------------------------------------------------

**************************************************************************************

Host: adabbott

Timers On : Tue Dec  8 14:06:28 2020
Timers Off: Tue Dec  8 14:06:52 2020

Wall Time:       24.20 seconds

                                                       Time (seconds)
Module                                       User      System        Wall        Calls

--------------------------------------------------------------------------------------

**************************************************************************************

Host: adabbott

Timers On : Tue Dec  8 14:07:06 2020
Timers Off: Tue Dec  8 14:07:31 2020

Wall Time:       24.65 seconds

                                                       Time (seconds)
Module                                       User      System        Wall        Calls

--------------------------------------------------------------------------------------

**************************************************************************************

Host: adabbott

Timers On : Tue Dec  8 14:07:40 2020
Timers Off: Tue Dec  8 14:08:07 2020

Wall Time:       27.81 seconds

                                                       Time (seconds)
Module                                       User      System        Wall        Calls

--------------------------------------------------------------------------------------

**************************************************************************************

Host: adabbott

Timers On : Tue Dec  8 14:08:31 2020
Timers Off: Tue Dec  8 14:08:55 2020

Wall Time:       24.16 seconds

                                                       Time (seconds)
Module                                       User      System        Wall        Calls

--------------------------------------------------------------------------------------

**************************************************************************************

Host: adabbott

Timers On : Tue Dec  8 14:09:11 2020
Timers Off: Tue Dec  8 14:09:37 2020

Wall Time:       25.48 seconds

                                                       Time (seconds)
Module                                       User      System        Wall        Calls

--------------------------------------------------------------------------------------

**************************************************************************************

Host: adabbott

Timers On : Tue Dec  8 14:10:08 2020
Timers Off: Tue Dec  8 14:10:32 2020

Wall Time:       23.67 seconds

                                                       Time (seconds)
Module                                       User      System        Wall        Calls

--------------------------------------------------------------------------------------

**************************************************************************************

Host: adabbott

Timers On : Tue Dec  8 14:10:54 2020
Timers Off: Tue Dec  8 14:11:26 2020

Wall Time:       31.62 seconds

                                                       Time (seconds)
Module                                       User      System        Wall        Calls

--------------------------------------------------------------------------------------

**************************************************************************************

Host: adabbott

Timers On : Tue Dec  8 14:11:40 2020
Timers Off: Tue Dec  8 14:23:33 2020

Wall Time:      712.96 seconds

                                                       Time (seconds)
Module                                       User      System        Wall        Calls

--------------------------------------------------------------------------------------

**************************************************************************************

Host: adabbott

Timers On : Tue Dec  8 16:00:58 2020
Timers Off: Tue Dec  8 16:01:01 2020

Wall Time:        3.10 seconds

                                                       Time (seconds)
Module                                       User      System        Wall        Calls

--------------------------------------------------------------------------------------

**************************************************************************************

Host: adabbott

Timers On : Tue Dec  8 16:01:01 2020
Timers Off: Tue Dec  8 16:01:07 2020

Wall Time:        5.65 seconds

                                                       Time (seconds)
Module                                       User      System        Wall        Calls

--------------------------------------------------------------------------------------

**************************************************************************************

Host: adabbott

Timers On : Tue Dec  8 16:01:07 2020
Timers Off: Tue Dec  8 16:01:18 2020

Wall Time:       10.77 seconds

                                                       Time (seconds)
Module                                       User      System        Wall        Calls

--------------------------------------------------------------------------------------

**************************************************************************************

Host: adabbott

Timers On : Tue Dec  8 16:01:18 2020
Timers Off: Tue Dec  8 16:01:41 2020

Wall Time:       23.55 seconds

                                                       Time (seconds)
Module                                       User      System        Wall        Calls

--------------------------------------------------------------------------------------

**************************************************************************************

Host: adabbott

Timers On : Tue Dec  8 16:01:42 2020
Timers Off: Tue Dec  8 16:01:46 2020

Wall Time:        4.50 seconds

                                                       Time (seconds)
Module                                       User      System        Wall        Calls

--------------------------------------------------------------------------------------

**************************************************************************************

Host: adabbott

Timers On : Tue Dec  8 16:01:46 2020
Timers Off: Tue Dec  8 16:01:54 2020

Wall Time:        8.13 seconds

                                                       Time (seconds)
Module                                       User      System        Wall        Calls

--------------------------------------------------------------------------------------

**************************************************************************************

Host: adabbott

Timers On : Tue Dec  8 16:01:55 2020
Timers Off: Tue Dec  8 16:02:10 2020

Wall Time:       15.28 seconds

                                                       Time (seconds)
Module                                       User      System        Wall        Calls

--------------------------------------------------------------------------------------

**************************************************************************************

Host: adabbott

Timers On : Tue Dec  8 16:02:10 2020
Timers Off: Tue Dec  8 16:02:41 2020

Wall Time:       31.34 seconds

                                                       Time (seconds)
Module                                       User      System        Wall        Calls

--------------------------------------------------------------------------------------

**************************************************************************************

Host: adabbott

Timers On : Tue Dec  8 16:02:42 2020
Timers Off: Tue Dec  8 16:03:05 2020

Wall Time:       23.29 seconds

                                                       Time (seconds)
Module                                       User      System        Wall        Calls

--------------------------------------------------------------------------------------

**************************************************************************************

Host: adabbott

Timers On : Tue Dec  8 16:03:05 2020
Timers Off: Tue Dec  8 16:04:15 2020

Wall Time:       70.22 seconds

                                                       Time (seconds)
Module                                       User      System        Wall        Calls

--------------------------------------------------------------------------------------

**************************************************************************************

Host: adabbott

Timers On : Tue Dec  8 16:04:16 2020
Timers Off: Tue Dec  8 16:07:32 2020

Wall Time:      196.03 seconds

                                                       Time (seconds)
Module                                       User      System        Wall        Calls

--------------------------------------------------------------------------------------

**************************************************************************************

Host: adabbott

Timers On : Tue Dec  8 16:07:32 2020
Timers Off: Tue Dec  8 16:19:29 2020

Wall Time:      717.17 seconds

                                                       Time (seconds)
Module                                       User      System        Wall        Calls

--------------------------------------------------------------------------------------

**************************************************************************************

Host: adabbott

Timers On : Wed Dec  9 11:14:46 2020
Timers Off: Wed Dec  9 11:15:08 2020

Wall Time:       22.11 seconds

                                                       Time (seconds)
Module                                       User      System        Wall        Calls

--------------------------------------------------------------------------------------

**************************************************************************************

Host: adabbott

Timers On : Wed Dec  9 11:15:43 2020
Timers Off: Wed Dec  9 11:15:46 2020

Wall Time:        3.16 seconds

                                                       Time (seconds)
Module                                       User      System        Wall        Calls

--------------------------------------------------------------------------------------

**************************************************************************************

Host: adabbott

Timers On : Wed Dec  9 11:15:56 2020
Timers Off: Wed Dec  9 11:15:59 2020

Wall Time:        3.19 seconds

                                                       Time (seconds)
Module                                       User      System        Wall        Calls

--------------------------------------------------------------------------------------

**************************************************************************************

Host: adabbott

Timers On : Wed Dec  9 11:16:04 2020
Timers Off: Wed Dec  9 11:16:10 2020

Wall Time:        5.83 seconds

                                                       Time (seconds)
Module                                       User      System        Wall        Calls

--------------------------------------------------------------------------------------

**************************************************************************************

Host: adabbott

Timers On : Wed Dec  9 11:17:37 2020
Timers Off: Wed Dec  9 11:17:42 2020

Wall Time:        5.83 seconds

                                                       Time (seconds)
Module                                       User      System        Wall        Calls

--------------------------------------------------------------------------------------

**************************************************************************************

Host: adabbott

Timers On : Wed Dec  9 11:18:11 2020
Timers Off: Wed Dec  9 11:18:16 2020

Wall Time:        5.92 seconds

                                                       Time (seconds)
Module                                       User      System        Wall        Calls

--------------------------------------------------------------------------------------

**************************************************************************************

Host: adabbott

Timers On : Wed Dec  9 13:23:54 2020
Timers Off: Wed Dec  9 13:23:59 2020

Wall Time:        4.84 seconds

                                                       Time (seconds)
Module                                       User      System        Wall        Calls

--------------------------------------------------------------------------------------

**************************************************************************************

Host: adabbott

Timers On : Wed Dec  9 13:23:59 2020
Timers Off: Wed Dec  9 13:24:08 2020

Wall Time:        8.82 seconds

                                                       Time (seconds)
Module                                       User      System        Wall        Calls

--------------------------------------------------------------------------------------

**************************************************************************************

Host: adabbott

Timers On : Wed Dec  9 13:24:08 2020
Timers Off: Wed Dec  9 13:24:26 2020

Wall Time:       17.21 seconds

                                                       Time (seconds)
Module                                       User      System        Wall        Calls

--------------------------------------------------------------------------------------

**************************************************************************************

Host: adabbott

Timers On : Wed Dec  9 13:24:26 2020
Timers Off: Wed Dec  9 13:25:03 2020

Wall Time:       37.44 seconds

                                                       Time (seconds)
Module                                       User      System        Wall        Calls

--------------------------------------------------------------------------------------

**************************************************************************************

Host: adabbott

Timers On : Wed Dec  9 13:25:04 2020
Timers Off: Wed Dec  9 13:25:09 2020

Wall Time:        5.82 seconds

                                                       Time (seconds)
Module                                       User      System        Wall        Calls

--------------------------------------------------------------------------------------

**************************************************************************************

Host: adabbott

Timers On : Wed Dec  9 13:25:10 2020
Timers Off: Wed Dec  9 13:25:20 2020

Wall Time:       10.85 seconds

                                                       Time (seconds)
Module                                       User      System        Wall        Calls

--------------------------------------------------------------------------------------

**************************************************************************************

Host: adabbott

Timers On : Wed Dec  9 13:25:21 2020
Timers Off: Wed Dec  9 13:25:42 2020

Wall Time:       21.56 seconds

                                                       Time (seconds)
Module                                       User      System        Wall        Calls

--------------------------------------------------------------------------------------

**************************************************************************************

Host: adabbott

Timers On : Wed Dec  9 13:25:42 2020
Timers Off: Wed Dec  9 13:26:26 2020

Wall Time:       43.94 seconds

                                                       Time (seconds)
Module                                       User      System        Wall        Calls

--------------------------------------------------------------------------------------

**************************************************************************************

Host: adabbott

Timers On : Wed Dec  9 13:26:27 2020
Timers Off: Wed Dec  9 13:26:51 2020

Wall Time:       24.80 seconds

                                                       Time (seconds)
Module                                       User      System        Wall        Calls

--------------------------------------------------------------------------------------

**************************************************************************************

Host: adabbott

Timers On : Wed Dec  9 13:26:52 2020
Timers Off: Wed Dec  9 13:28:01 2020

Wall Time:       69.61 seconds

                                                       Time (seconds)
Module                                       User      System        Wall        Calls

--------------------------------------------------------------------------------------

**************************************************************************************

Host: adabbott

Timers On : Wed Dec  9 13:28:27 2020
Timers Off: Wed Dec  9 13:28:31 2020

Wall Time:        3.37 seconds

                                                       Time (seconds)
Module                                       User      System        Wall        Calls

--------------------------------------------------------------------------------------

**************************************************************************************

Host: adabbott

Timers On : Wed Dec  9 13:28:31 2020
Timers Off: Wed Dec  9 13:28:37 2020

Wall Time:        5.68 seconds

                                                       Time (seconds)
Module                                       User      System        Wall        Calls

--------------------------------------------------------------------------------------

**************************************************************************************

Host: adabbott

Timers On : Wed Dec  9 13:28:37 2020
Timers Off: Wed Dec  9 13:28:48 2020

Wall Time:       10.77 seconds

                                                       Time (seconds)
Module                                       User      System        Wall        Calls

--------------------------------------------------------------------------------------

**************************************************************************************

Host: adabbott

Timers On : Wed Dec  9 13:28:48 2020
Timers Off: Wed Dec  9 13:29:11 2020

Wall Time:       23.24 seconds

                                                       Time (seconds)
Module                                       User      System        Wall        Calls

--------------------------------------------------------------------------------------

**************************************************************************************

Host: adabbott

Timers On : Wed Dec  9 13:29:11 2020
Timers Off: Wed Dec  9 13:29:16 2020

Wall Time:        4.68 seconds

                                                       Time (seconds)
Module                                       User      System        Wall        Calls

--------------------------------------------------------------------------------------

**************************************************************************************

Host: adabbott

Timers On : Wed Dec  9 13:29:16 2020
Timers Off: Wed Dec  9 13:29:24 2020

Wall Time:        8.21 seconds

                                                       Time (seconds)
Module                                       User      System        Wall        Calls

--------------------------------------------------------------------------------------

**************************************************************************************

Host: adabbott

Timers On : Wed Dec  9 13:29:24 2020
Timers Off: Wed Dec  9 13:29:39 2020

Wall Time:       15.06 seconds

                                                       Time (seconds)
Module                                       User      System        Wall        Calls

--------------------------------------------------------------------------------------

**************************************************************************************

Host: adabbott

Timers On : Wed Dec  9 13:29:40 2020
Timers Off: Wed Dec  9 13:30:11 2020

Wall Time:       31.68 seconds

                                                       Time (seconds)
Module                                       User      System        Wall        Calls

--------------------------------------------------------------------------------------

**************************************************************************************

Host: adabbott

Timers On : Wed Dec  9 13:30:18 2020
Timers Off: Wed Dec  9 13:33:42 2020

Wall Time:      203.80 seconds

                                                       Time (seconds)
Module                                       User      System        Wall        Calls

--------------------------------------------------------------------------------------

**************************************************************************************

Host: adabbott

Timers On : Wed Dec  9 15:43:12 2020
Timers Off: Wed Dec  9 15:43:38 2020

Wall Time:       25.71 seconds

                                                       Time (seconds)
Module                                       User      System        Wall        Calls

--------------------------------------------------------------------------------------

**************************************************************************************

Host: adabbott

Timers On : Wed Dec  9 15:45:23 2020
Timers Off: Wed Dec  9 15:45:48 2020

Wall Time:       24.47 seconds

                                                       Time (seconds)
Module                                       User      System        Wall        Calls

--------------------------------------------------------------------------------------

**************************************************************************************

Host: adabbott

Timers On : Wed Dec  9 15:47:12 2020
Timers Off: Wed Dec  9 15:47:37 2020

Wall Time:       24.37 seconds

                                                       Time (seconds)
Module                                       User      System        Wall        Calls

--------------------------------------------------------------------------------------

**************************************************************************************

Host: adabbott

Timers On : Wed Dec  9 15:49:14 2020
Timers Off: Wed Dec  9 15:49:39 2020

Wall Time:       24.35 seconds

                                                       Time (seconds)
Module                                       User      System        Wall        Calls

--------------------------------------------------------------------------------------

**************************************************************************************

Host: adabbott

Timers On : Wed Dec  9 15:49:46 2020
Timers Off: Wed Dec  9 15:50:10 2020

Wall Time:       24.06 seconds

                                                       Time (seconds)
Module                                       User      System        Wall        Calls

--------------------------------------------------------------------------------------

**************************************************************************************

Host: adabbott

Timers On : Wed Dec  9 15:51:02 2020
Timers Off: Wed Dec  9 15:51:26 2020

Wall Time:       24.00 seconds

                                                       Time (seconds)
Module                                       User      System        Wall        Calls

--------------------------------------------------------------------------------------

**************************************************************************************

Host: adabbott

Timers On : Thu Dec 10 13:40:28 2020
Timers Off: Thu Dec 10 13:40:46 2020

Wall Time:       17.88 seconds

                                                       Time (seconds)
Module                                       User      System        Wall        Calls

--------------------------------------------------------------------------------------

**************************************************************************************

Host: adabbott

Timers On : Thu Dec 10 13:41:24 2020
Timers Off: Thu Dec 10 13:41:24 2020

Wall Time:        0.77 seconds

                                                       Time (seconds)
Module                                       User      System        Wall        Calls

--------------------------------------------------------------------------------------

**************************************************************************************

Host: adabbott

Timers On : Thu Dec 10 13:41:37 2020
Timers Off: Thu Dec 10 13:41:55 2020

Wall Time:       17.75 seconds

                                                       Time (seconds)
Module                                       User      System        Wall        Calls

--------------------------------------------------------------------------------------

**************************************************************************************

Host: adabbott

Timers On : Thu Dec 10 13:46:20 2020
Timers Off: Thu Dec 10 13:46:38 2020

Wall Time:       17.98 seconds

                                                       Time (seconds)
Module                                       User      System        Wall        Calls

--------------------------------------------------------------------------------------

**************************************************************************************

Host: adabbott

Timers On : Thu Dec 10 13:46:45 2020
Timers Off: Thu Dec 10 13:47:30 2020

Wall Time:       44.77 seconds

                                                       Time (seconds)
Module                                       User      System        Wall        Calls

--------------------------------------------------------------------------------------

**************************************************************************************

Host: adabbott

Timers On : Thu Dec 10 13:48:26 2020
Timers Off: Thu Dec 10 13:48:43 2020

Wall Time:       17.79 seconds

                                                       Time (seconds)
Module                                       User      System        Wall        Calls

--------------------------------------------------------------------------------------

**************************************************************************************

Host: adabbott

Timers On : Thu Dec 10 17:24:50 2020
Timers Off: Thu Dec 10 17:24:53 2020

Wall Time:        3.39 seconds

                                                       Time (seconds)
Module                                       User      System        Wall        Calls

--------------------------------------------------------------------------------------

**************************************************************************************

Host: adabbott

Timers On : Thu Dec 10 17:24:53 2020
Timers Off: Thu Dec 10 17:24:59 2020

Wall Time:        5.22 seconds

                                                       Time (seconds)
Module                                       User      System        Wall        Calls

--------------------------------------------------------------------------------------

**************************************************************************************

Host: adabbott

Timers On : Thu Dec 10 17:24:59 2020
Timers Off: Thu Dec 10 17:25:08 2020

Wall Time:        8.84 seconds

                                                       Time (seconds)
Module                                       User      System        Wall        Calls

--------------------------------------------------------------------------------------

**************************************************************************************

Host: adabbott

Timers On : Thu Dec 10 17:25:08 2020
Timers Off: Thu Dec 10 17:25:24 2020

Wall Time:       16.11 seconds

                                                       Time (seconds)
Module                                       User      System        Wall        Calls

--------------------------------------------------------------------------------------

**************************************************************************************

Host: adabbott

Timers On : Thu Dec 10 17:25:24 2020
Timers Off: Thu Dec 10 17:25:28 2020

Wall Time:        4.37 seconds

                                                       Time (seconds)
Module                                       User      System        Wall        Calls

--------------------------------------------------------------------------------------

**************************************************************************************

Host: adabbott

Timers On : Thu Dec 10 17:25:29 2020
Timers Off: Thu Dec 10 17:25:36 2020

Wall Time:        7.38 seconds

                                                       Time (seconds)
Module                                       User      System        Wall        Calls

--------------------------------------------------------------------------------------

**************************************************************************************

Host: adabbott

Timers On : Thu Dec 10 17:25:36 2020
Timers Off: Thu Dec 10 17:25:49 2020

Wall Time:       13.14 seconds

                                                       Time (seconds)
Module                                       User      System        Wall        Calls

--------------------------------------------------------------------------------------

**************************************************************************************

Host: adabbott

Timers On : Thu Dec 10 17:25:49 2020
Timers Off: Thu Dec 10 17:26:14 2020

Wall Time:       24.71 seconds

                                                       Time (seconds)
Module                                       User      System        Wall        Calls

--------------------------------------------------------------------------------------

**************************************************************************************

Host: adabbott

Timers On : Thu Dec 10 17:26:14 2020
Timers Off: Thu Dec 10 17:26:48 2020

Wall Time:       34.04 seconds

                                                       Time (seconds)
Module                                       User      System        Wall        Calls

--------------------------------------------------------------------------------------

**************************************************************************************

Host: adabbott

Timers On : Thu Dec 10 17:26:49 2020
Timers Off: Thu Dec 10 17:27:59 2020

Wall Time:       70.43 seconds

                                                       Time (seconds)
Module                                       User      System        Wall        Calls

--------------------------------------------------------------------------------------

**************************************************************************************

Host: adabbott

Timers On : Thu Dec 10 17:27:59 2020
Timers Off: Thu Dec 10 17:30:40 2020

Wall Time:      160.72 seconds

                                                       Time (seconds)
Module                                       User      System        Wall        Calls

--------------------------------------------------------------------------------------

**************************************************************************************

Host: adabbott

Timers On : Thu Dec 10 17:30:41 2020
Timers Off: Thu Dec 10 17:36:51 2020

Wall Time:      370.68 seconds

                                                       Time (seconds)
Module                                       User      System        Wall        Calls

--------------------------------------------------------------------------------------

**************************************************************************************

Host: adabbott

Timers On : Fri Dec 11 16:52:54 2020
Timers Off: Fri Dec 11 16:52:57 2020

Wall Time:        3.44 seconds

                                                       Time (seconds)
Module                                       User      System        Wall        Calls

--------------------------------------------------------------------------------------

**************************************************************************************

Host: adabbott

Timers On : Fri Dec 11 16:52:57 2020
Timers Off: Fri Dec 11 16:53:03 2020

Wall Time:        5.33 seconds

                                                       Time (seconds)
Module                                       User      System        Wall        Calls

--------------------------------------------------------------------------------------

**************************************************************************************

Host: adabbott

Timers On : Fri Dec 11 16:53:03 2020
Timers Off: Fri Dec 11 16:53:12 2020

Wall Time:        8.91 seconds

                                                       Time (seconds)
Module                                       User      System        Wall        Calls

--------------------------------------------------------------------------------------

**************************************************************************************

Host: adabbott

Timers On : Fri Dec 11 16:53:15 2020
Timers Off: Fri Dec 11 16:53:20 2020

Wall Time:        4.69 seconds

                                                       Time (seconds)
Module                                       User      System        Wall        Calls

--------------------------------------------------------------------------------------

**************************************************************************************

Host: adabbott

Timers On : Fri Dec 11 16:56:18 2020
Timers Off: Fri Dec 11 16:56:22 2020

Wall Time:        3.31 seconds

                                                       Time (seconds)
Module                                       User      System        Wall        Calls

--------------------------------------------------------------------------------------

**************************************************************************************

Host: adabbott

Timers On : Fri Dec 11 16:56:22 2020
Timers Off: Fri Dec 11 16:56:27 2020

Wall Time:        5.19 seconds

                                                       Time (seconds)
Module                                       User      System        Wall        Calls

--------------------------------------------------------------------------------------

**************************************************************************************

Host: adabbott

Timers On : Fri Dec 11 16:56:27 2020
Timers Off: Fri Dec 11 16:56:36 2020

Wall Time:        9.02 seconds

                                                       Time (seconds)
Module                                       User      System        Wall        Calls

--------------------------------------------------------------------------------------

**************************************************************************************

Host: adabbott

Timers On : Fri Dec 11 16:56:36 2020
Timers Off: Fri Dec 11 16:56:53 2020

Wall Time:       16.55 seconds

                                                       Time (seconds)
Module                                       User      System        Wall        Calls

--------------------------------------------------------------------------------------

**************************************************************************************

Host: adabbott

Timers On : Fri Dec 11 16:56:53 2020
Timers Off: Fri Dec 11 16:56:57 2020

Wall Time:        4.52 seconds

                                                       Time (seconds)
Module                                       User      System        Wall        Calls

--------------------------------------------------------------------------------------

**************************************************************************************

Host: adabbott

Timers On : Fri Dec 11 16:56:58 2020
Timers Off: Fri Dec 11 16:57:05 2020

Wall Time:        7.23 seconds

                                                       Time (seconds)
Module                                       User      System        Wall        Calls

--------------------------------------------------------------------------------------

**************************************************************************************

Host: adabbott

Timers On : Fri Dec 11 16:57:05 2020
Timers Off: Fri Dec 11 16:57:17 2020

Wall Time:       12.30 seconds

                                                       Time (seconds)
Module                                       User      System        Wall        Calls

--------------------------------------------------------------------------------------

**************************************************************************************

Host: adabbott

Timers On : Fri Dec 11 16:57:18 2020
Timers Off: Fri Dec 11 16:57:40 2020

Wall Time:       22.96 seconds

                                                       Time (seconds)
Module                                       User      System        Wall        Calls

--------------------------------------------------------------------------------------

**************************************************************************************

Host: adabbott

Timers On : Fri Dec 11 16:57:41 2020
Timers Off: Fri Dec 11 16:58:15 2020

Wall Time:       34.39 seconds

                                                       Time (seconds)
Module                                       User      System        Wall        Calls

--------------------------------------------------------------------------------------

**************************************************************************************

Host: adabbott

Timers On : Fri Dec 11 16:58:15 2020
Timers Off: Fri Dec 11 16:59:26 2020

Wall Time:       70.51 seconds

                                                       Time (seconds)
Module                                       User      System        Wall        Calls

--------------------------------------------------------------------------------------

**************************************************************************************

Host: adabbott

Timers On : Fri Dec 11 16:59:26 2020
Timers Off: Fri Dec 11 17:02:03 2020

Wall Time:      156.83 seconds

                                                       Time (seconds)
Module                                       User      System        Wall        Calls

--------------------------------------------------------------------------------------

**************************************************************************************

Host: adabbott

Timers On : Fri Dec 11 17:02:03 2020
Timers Off: Fri Dec 11 17:08:17 2020

Wall Time:      373.29 seconds

                                                       Time (seconds)
Module                                       User      System        Wall        Calls

--------------------------------------------------------------------------------------

**************************************************************************************

Host: adabbott

Timers On : Sat Dec 12 09:28:54 2020
Timers Off: Sat Dec 12 10:40:06 2020

Wall Time:     4271.35 seconds

                                                       Time (seconds)
Module                                       User      System        Wall        Calls

--------------------------------------------------------------------------------------

**************************************************************************************

Host: adabbott

Timers On : Sat Dec 12 11:58:58 2020
Timers Off: Sat Dec 12 11:59:55 2020

Wall Time:       56.37 seconds

                                                       Time (seconds)
Module                                       User      System        Wall        Calls

--------------------------------------------------------------------------------------

**************************************************************************************

Host: adabbott

Timers On : Sat Dec 12 17:25:10 2020
Timers Off: Sat Dec 12 17:25:14 2020

Wall Time:        3.79 seconds

                                                       Time (seconds)
Module                                       User      System        Wall        Calls

--------------------------------------------------------------------------------------

**************************************************************************************

Host: adabbott

Timers On : Sat Dec 12 17:25:14 2020
Timers Off: Sat Dec 12 17:25:20 2020

Wall Time:        5.30 seconds

                                                       Time (seconds)
Module                                       User      System        Wall        Calls

--------------------------------------------------------------------------------------

**************************************************************************************

Host: adabbott

Timers On : Sat Dec 12 17:25:20 2020
Timers Off: Sat Dec 12 17:25:29 2020

Wall Time:        8.76 seconds

                                                       Time (seconds)
Module                                       User      System        Wall        Calls

--------------------------------------------------------------------------------------

**************************************************************************************

Host: adabbott

Timers On : Sat Dec 12 17:25:29 2020
Timers Off: Sat Dec 12 17:25:45 2020

Wall Time:       16.37 seconds

                                                       Time (seconds)
Module                                       User      System        Wall        Calls

--------------------------------------------------------------------------------------

**************************************************************************************

Host: adabbott

Timers On : Sat Dec 12 17:25:45 2020
Timers Off: Sat Dec 12 17:26:19 2020

Wall Time:       33.79 seconds

                                                       Time (seconds)
Module                                       User      System        Wall        Calls

--------------------------------------------------------------------------------------

**************************************************************************************

Host: adabbott

Timers On : Sat Dec 12 17:26:20 2020
Timers Off: Sat Dec 12 17:27:44 2020

Wall Time:       84.27 seconds

                                                       Time (seconds)
Module                                       User      System        Wall        Calls

--------------------------------------------------------------------------------------

**************************************************************************************

Host: adabbott

Timers On : Sat Dec 12 17:27:44 2020
Timers Off: Sat Dec 12 17:27:49 2020

Wall Time:        4.60 seconds

                                                       Time (seconds)
Module                                       User      System        Wall        Calls

--------------------------------------------------------------------------------------

**************************************************************************************

Host: adabbott

Timers On : Sat Dec 12 17:27:49 2020
Timers Off: Sat Dec 12 17:27:56 2020

Wall Time:        7.30 seconds

                                                       Time (seconds)
Module                                       User      System        Wall        Calls

--------------------------------------------------------------------------------------

**************************************************************************************

Host: adabbott

Timers On : Sat Dec 12 17:27:57 2020
Timers Off: Sat Dec 12 17:28:09 2020

Wall Time:       12.47 seconds

                                                       Time (seconds)
Module                                       User      System        Wall        Calls

--------------------------------------------------------------------------------------

**************************************************************************************

Host: adabbott

Timers On : Sat Dec 12 17:28:09 2020
Timers Off: Sat Dec 12 17:28:32 2020

Wall Time:       23.18 seconds

                                                       Time (seconds)
Module                                       User      System        Wall        Calls

--------------------------------------------------------------------------------------

**************************************************************************************

Host: adabbott

Timers On : Sat Dec 12 17:28:33 2020
Timers Off: Sat Dec 12 17:29:21 2020

Wall Time:       48.39 seconds

                                                       Time (seconds)
Module                                       User      System        Wall        Calls

--------------------------------------------------------------------------------------

**************************************************************************************

Host: adabbott

Timers On : Sat Dec 12 17:29:21 2020
Timers Off: Sat Dec 12 17:31:24 2020

Wall Time:      122.58 seconds

                                                       Time (seconds)
Module                                       User      System        Wall        Calls

--------------------------------------------------------------------------------------

**************************************************************************************

Host: adabbott

Timers On : Sat Dec 12 17:31:25 2020
Timers Off: Sat Dec 12 17:31:59 2020

Wall Time:       34.49 seconds

                                                       Time (seconds)
Module                                       User      System        Wall        Calls

--------------------------------------------------------------------------------------

**************************************************************************************

Host: adabbott

Timers On : Sat Dec 12 17:31:59 2020
Timers Off: Sat Dec 12 17:33:10 2020

Wall Time:       71.03 seconds

                                                       Time (seconds)
Module                                       User      System        Wall        Calls

--------------------------------------------------------------------------------------

**************************************************************************************

Host: adabbott

Timers On : Sat Dec 12 17:33:11 2020
Timers Off: Sat Dec 12 17:35:48 2020

Wall Time:      157.13 seconds

                                                       Time (seconds)
Module                                       User      System        Wall        Calls

--------------------------------------------------------------------------------------

**************************************************************************************

Host: adabbott

Timers On : Sat Dec 12 17:35:48 2020
Timers Off: Sat Dec 12 17:42:03 2020

Wall Time:      374.91 seconds

                                                       Time (seconds)
Module                                       User      System        Wall        Calls

--------------------------------------------------------------------------------------

**************************************************************************************

Host: adabbott

Timers On : Sat Dec 12 17:42:04 2020
Timers Off: Sat Dec 12 17:58:10 2020

Wall Time:      965.79 seconds

                                                       Time (seconds)
Module                                       User      System        Wall        Calls

--------------------------------------------------------------------------------------

**************************************************************************************

Host: adabbott

Timers On : Sat Dec 12 17:58:12 2020
Timers Off: Sat Dec 12 18:44:30 2020

Wall Time:     2778.13 seconds

                                                       Time (seconds)
Module                                       User      System        Wall        Calls

--------------------------------------------------------------------------------------

**************************************************************************************

Host: n093

Timers On : Mon Dec 14 15:07:43 2020
Timers Off: Mon Dec 14 16:10:41 2020

Wall Time:     3777.75 seconds

                                                       Time (seconds)
Module                                       User      System        Wall        Calls

--------------------------------------------------------------------------------------

**************************************************************************************

Host: n093

Timers On : Tue Dec 15 19:07:02 2020
Timers Off: Tue Dec 15 19:07:06 2020

Wall Time:        4.02 seconds

                                                       Time (seconds)
Module                                       User      System        Wall        Calls

--------------------------------------------------------------------------------------

**************************************************************************************

Host: n093

Timers On : Tue Dec 15 19:07:06 2020
Timers Off: Tue Dec 15 19:07:13 2020

Wall Time:        6.57 seconds

                                                       Time (seconds)
Module                                       User      System        Wall        Calls

--------------------------------------------------------------------------------------

**************************************************************************************

Host: n093

Timers On : Tue Dec 15 19:07:13 2020
Timers Off: Tue Dec 15 19:07:25 2020

Wall Time:       11.47 seconds

                                                       Time (seconds)
Module                                       User      System        Wall        Calls

--------------------------------------------------------------------------------------

**************************************************************************************

Host: n093

Timers On : Tue Dec 15 19:07:25 2020
Timers Off: Tue Dec 15 19:07:47 2020

Wall Time:       22.05 seconds

                                                       Time (seconds)
Module                                       User      System        Wall        Calls

--------------------------------------------------------------------------------------

**************************************************************************************

Host: n093

Timers On : Tue Dec 15 19:07:47 2020
Timers Off: Tue Dec 15 19:08:35 2020

Wall Time:       47.59 seconds

                                                       Time (seconds)
Module                                       User      System        Wall        Calls

--------------------------------------------------------------------------------------

**************************************************************************************

Host: n093

Timers On : Tue Dec 15 19:08:35 2020
Timers Off: Tue Dec 15 19:10:30 2020

Wall Time:      115.01 seconds

                                                       Time (seconds)
Module                                       User      System        Wall        Calls

--------------------------------------------------------------------------------------

**************************************************************************************

Host: n093

Timers On : Tue Dec 15 19:10:31 2020
Timers Off: Tue Dec 15 19:10:36 2020

Wall Time:        5.61 seconds

                                                       Time (seconds)
Module                                       User      System        Wall        Calls

--------------------------------------------------------------------------------------

**************************************************************************************

Host: n093

Timers On : Tue Dec 15 19:10:37 2020
Timers Off: Tue Dec 15 19:10:45 2020

Wall Time:        8.72 seconds

                                                       Time (seconds)
Module                                       User      System        Wall        Calls

--------------------------------------------------------------------------------------

**************************************************************************************

Host: n093

Timers On : Tue Dec 15 19:10:46 2020
Timers Off: Tue Dec 15 19:11:00 2020

Wall Time:       14.88 seconds

                                                       Time (seconds)
Module                                       User      System        Wall        Calls

--------------------------------------------------------------------------------------

**************************************************************************************

Host: n093

Timers On : Tue Dec 15 19:11:01 2020
Timers Off: Tue Dec 15 19:11:29 2020

Wall Time:       28.00 seconds

                                                       Time (seconds)
Module                                       User      System        Wall        Calls

--------------------------------------------------------------------------------------

**************************************************************************************

Host: n093

Timers On : Tue Dec 15 19:11:29 2020
Timers Off: Tue Dec 15 19:12:30 2020

Wall Time:       60.72 seconds

                                                       Time (seconds)
Module                                       User      System        Wall        Calls

--------------------------------------------------------------------------------------

**************************************************************************************

Host: n093

Timers On : Tue Dec 15 19:12:30 2020
Timers Off: Tue Dec 15 19:15:05 2020

Wall Time:      154.30 seconds

                                                       Time (seconds)
Module                                       User      System        Wall        Calls

--------------------------------------------------------------------------------------

**************************************************************************************

Host: n093

Timers On : Tue Dec 15 19:15:05 2020
Timers Off: Tue Dec 15 19:15:42 2020

Wall Time:       36.40 seconds

                                                       Time (seconds)
Module                                       User      System        Wall        Calls

--------------------------------------------------------------------------------------

**************************************************************************************

Host: n093

Timers On : Tue Dec 15 19:15:42 2020
Timers Off: Tue Dec 15 19:16:55 2020

Wall Time:       72.42 seconds

                                                       Time (seconds)
Module                                       User      System        Wall        Calls

--------------------------------------------------------------------------------------

**************************************************************************************

Host: n093

Timers On : Tue Dec 15 19:16:55 2020
[...]

Host: n093

Timers On : Tue Dec 22 18:36:09 2020
Timers Off: Tue Dec 22 18:37:37 2020

Wall Time:       87.60 seconds

                                                       Time (seconds)
Module                                       User      System        Wall        Calls

--------------------------------------------------------------------------------------

**************************************************************************************

Host: n093

Timers On : Tue Dec 22 18:37:37 2020
Timers Off: Tue Dec 22 18:41:36 2020

Wall Time:      238.64 seconds

                                                       Time (seconds)
Module                                       User      System        Wall        Calls

--------------------------------------------------------------------------------------

**************************************************************************************

Host: n093

Timers On : Tue Dec 22 18:41:36 2020
Timers Off: Tue Dec 22 18:42:13 2020

Wall Time:       36.42 seconds

                                                       Time (seconds)
Module                                       User      System        Wall        Calls

--------------------------------------------------------------------------------------

**************************************************************************************

Host: n093

Timers On : Tue Dec 22 18:42:13 2020
Timers Off: Tue Dec 22 18:43:27 2020

Wall Time:       74.09 seconds

                                                       Time (seconds)
Module                                       User      System        Wall        Calls

--------------------------------------------------------------------------------------

**************************************************************************************

Host: n093

Timers On : Tue Dec 22 18:43:28 2020
Timers Off: Tue Dec 22 18:46:08 2020

Wall Time:      159.77 seconds

                                                       Time (seconds)
Module                                       User      System        Wall        Calls

--------------------------------------------------------------------------------------

**************************************************************************************

Host: n093

Timers On : Tue Dec 22 18:46:08 2020
Timers Off: Tue Dec 22 18:52:31 2020

Wall Time:      382.96 seconds

                                                       Time (seconds)
Module                                       User      System        Wall        Calls

--------------------------------------------------------------------------------------

**************************************************************************************

Host: n093

Timers On : Tue Dec 22 18:52:32 2020
Timers Off: Tue Dec 22 19:08:39 2020

Wall Time:      966.94 seconds

                                                       Time (seconds)
Module                                       User      System        Wall        Calls

--------------------------------------------------------------------------------------

**************************************************************************************

Host: n093

Timers On : Tue Dec 22 19:08:42 2020
Timers Off: Tue Dec 22 19:54:46 2020

Wall Time:     2764.07 seconds

                                                       Time (seconds)
Module                                       User      System        Wall        Calls

--------------------------------------------------------------------------------------

**************************************************************************************

Host: n093

Timers On : Mon Jan 18 19:32:57 2021
Timers Off: Mon Jan 18 19:33:02 2021

Wall Time:        4.88 seconds

                                                       Time (seconds)
Module                                       User      System        Wall        Calls

--------------------------------------------------------------------------------------

**************************************************************************************

Host: n093

Timers On : Mon Jan 18 19:33:02 2021
Timers Off: Mon Jan 18 19:33:10 2021

Wall Time:        7.97 seconds

                                                       Time (seconds)
Module                                       User      System        Wall        Calls

--------------------------------------------------------------------------------------

**************************************************************************************

Host: n093

Timers On : Mon Jan 18 19:33:11 2021
Timers Off: Mon Jan 18 19:33:26 2021

Wall Time:       15.16 seconds

                                                       Time (seconds)
Module                                       User      System        Wall        Calls

--------------------------------------------------------------------------------------

**************************************************************************************

Host: n093

Timers On : Mon Jan 18 19:33:26 2021
Timers Off: Mon Jan 18 19:33:58 2021

Wall Time:       32.15 seconds

                                                       Time (seconds)
Module                                       User      System        Wall        Calls

--------------------------------------------------------------------------------------

**************************************************************************************

Host: n093

Timers On : Mon Jan 18 19:33:58 2021
Timers Off: Mon Jan 18 19:35:12 2021

Wall Time:       73.87 seconds

                                                       Time (seconds)
Module                                       User      System        Wall        Calls

--------------------------------------------------------------------------------------

**************************************************************************************

Host: n093

Timers On : Mon Jan 18 19:35:13 2021
Timers Off: Mon Jan 18 19:38:36 2021

Wall Time:      203.17 seconds

                                                       Time (seconds)
Module                                       User      System        Wall        Calls

--------------------------------------------------------------------------------------

**************************************************************************************

Host: n093

Timers On : Mon Jan 18 19:38:37 2021
Timers Off: Mon Jan 18 19:38:43 2021

Wall Time:        6.23 seconds

                                                       Time (seconds)
Module                                       User      System        Wall        Calls

--------------------------------------------------------------------------------------

**************************************************************************************

Host: n093

Timers On : Mon Jan 18 19:38:43 2021
Timers Off: Mon Jan 18 19:38:53 2021

Wall Time:       10.40 seconds

                                                       Time (seconds)
Module                                       User      System        Wall        Calls

--------------------------------------------------------------------------------------

**************************************************************************************

Host: n093

Timers On : Mon Jan 18 19:38:54 2021
Timers Off: Mon Jan 18 19:39:13 2021

Wall Time:       19.09 seconds

                                                       Time (seconds)
Module                                       User      System        Wall        Calls

--------------------------------------------------------------------------------------

**************************************************************************************

Host: n093

Timers On : Mon Jan 18 19:39:13 2021
Timers Off: Mon Jan 18 19:39:53 2021

Wall Time:       39.54 seconds

                                                       Time (seconds)
Module                                       User      System        Wall        Calls

--------------------------------------------------------------------------------------

**************************************************************************************

Host: n093

Timers On : Mon Jan 18 19:39:53 2021
Timers Off: Mon Jan 18 19:41:22 2021

Wall Time:       89.01 seconds

                                                       Time (seconds)
Module                                       User      System        Wall        Calls

--------------------------------------------------------------------------------------

**************************************************************************************

Host: n093

Timers On : Mon Jan 18 19:41:22 2021
Timers Off: Mon Jan 18 19:45:23 2021

Wall Time:      240.44 seconds

                                                       Time (seconds)
Module                                       User      System        Wall        Calls

--------------------------------------------------------------------------------------

**************************************************************************************

Host: n093

Timers On : Mon Jan 18 19:45:24 2021
Timers Off: Mon Jan 18 19:46:00 2021

Wall Time:       36.43 seconds

                                                       Time (seconds)
Module                                       User      System        Wall        Calls

--------------------------------------------------------------------------------------

**************************************************************************************

Host: n093

Timers On : Mon Jan 18 19:46:01 2021
Timers Off: Mon Jan 18 19:47:14 2021

Wall Time:       73.06 seconds

                                                       Time (seconds)
Module                                       User      System        Wall        Calls

--------------------------------------------------------------------------------------

**************************************************************************************

Host: n093

Timers On : Mon Jan 18 19:47:14 2021
Timers Off: Mon Jan 18 19:49:54 2021

Wall Time:      160.43 seconds

                                                       Time (seconds)
Module                                       User      System        Wall        Calls

--------------------------------------------------------------------------------------

**************************************************************************************

Host: n093

Timers On : Mon Jan 18 19:49:55 2021
Timers Off: Mon Jan 18 19:56:17 2021

Wall Time:      381.44 seconds

                                                       Time (seconds)
Module                                       User      System        Wall        Calls

--------------------------------------------------------------------------------------

**************************************************************************************

Host: n093

Timers On : Mon Jan 18 19:56:18 2021
Timers Off: Mon Jan 18 20:12:24 2021

Wall Time:      966.60 seconds

                                                       Time (seconds)
Module                                       User      System        Wall        Calls

--------------------------------------------------------------------------------------

**************************************************************************************

Host: n093

Timers On : Mon Jan 18 20:12:27 2021
Timers Off: Mon Jan 18 20:59:09 2021

Wall Time:     2802.09 seconds

                                                       Time (seconds)
Module                                       User      System        Wall        Calls

--------------------------------------------------------------------------------------

**************************************************************************************

Host: n093

Timers On : Thu Jan 21 12:20:28 2021
Timers Off: Thu Jan 21 12:20:32 2021

Wall Time:        4.68 seconds

                                                       Time (seconds)
Module                                       User      System        Wall        Calls

--------------------------------------------------------------------------------------

**************************************************************************************

Host: n093

Timers On : Thu Jan 21 12:20:33 2021
Timers Off: Thu Jan 21 12:20:40 2021

Wall Time:        7.44 seconds

                                                       Time (seconds)
Module                                       User      System        Wall        Calls

--------------------------------------------------------------------------------------

**************************************************************************************

Host: n093

Timers On : Thu Jan 21 12:20:40 2021
Timers Off: Thu Jan 21 12:20:54 2021

Wall Time:       13.90 seconds

                                                       Time (seconds)
Module                                       User      System        Wall        Calls

--------------------------------------------------------------------------------------

**************************************************************************************

Host: n093

Timers On : Thu Jan 21 12:20:55 2021
Timers Off: Thu Jan 21 12:21:24 2021

Wall Time:       29.75 seconds

                                                       Time (seconds)
Module                                       User      System        Wall        Calls

--------------------------------------------------------------------------------------

**************************************************************************************

Host: n093

Timers On : Thu Jan 21 12:21:25 2021
Timers Off: Thu Jan 21 12:22:36 2021

Wall Time:       71.44 seconds

                                                       Time (seconds)
Module                                       User      System        Wall        Calls

--------------------------------------------------------------------------------------

**************************************************************************************

Host: n093

Timers On : Thu Jan 21 12:22:36 2021
Timers Off: Thu Jan 21 12:26:16 2021

Wall Time:      219.17 seconds

                                                       Time (seconds)
Module                                       User      System        Wall        Calls

--------------------------------------------------------------------------------------

**************************************************************************************

Host: n093

Timers On : Thu Jan 21 12:26:16 2021
Timers Off: Thu Jan 21 12:26:22 2021

Wall Time:        5.93 seconds

                                                       Time (seconds)
Module                                       User      System        Wall        Calls

--------------------------------------------------------------------------------------

**************************************************************************************

Host: n093

Timers On : Thu Jan 21 12:26:22 2021
Timers Off: Thu Jan 21 12:26:32 2021

Wall Time:        9.89 seconds

                                                       Time (seconds)
Module                                       User      System        Wall        Calls

--------------------------------------------------------------------------------------

**************************************************************************************

Host: n093

Timers On : Thu Jan 21 12:26:33 2021
Timers Off: Thu Jan 21 12:26:50 2021

Wall Time:       17.85 seconds

                                                       Time (seconds)
Module                                       User      System        Wall        Calls

--------------------------------------------------------------------------------------

**************************************************************************************

Host: n093

Timers On : Thu Jan 21 12:26:51 2021
Timers Off: Thu Jan 21 12:27:27 2021

Wall Time:       36.53 seconds

                                                       Time (seconds)
Module                                       User      System        Wall        Calls

--------------------------------------------------------------------------------------

**************************************************************************************

Host: n093

Timers On : Thu Jan 21 12:27:28 2021
Timers Off: Thu Jan 21 12:28:54 2021

Wall Time:       86.27 seconds

                                                       Time (seconds)
Module                                       User      System        Wall        Calls

--------------------------------------------------------------------------------------

**************************************************************************************

Host: n093

Timers On : Thu Jan 21 12:28:54 2021
Timers Off: Thu Jan 21 12:33:10 2021

Wall Time:      256.10 seconds

                                                       Time (seconds)
Module                                       User      System        Wall        Calls

--------------------------------------------------------------------------------------

**************************************************************************************

Host: n093

Timers On : Thu Jan 21 12:33:11 2021
Timers Off: Thu Jan 21 12:33:34 2021

Wall Time:       23.22 seconds

                                                       Time (seconds)
Module                                       User      System        Wall        Calls

--------------------------------------------------------------------------------------

**************************************************************************************

Host: n093

Timers On : Thu Jan 21 12:33:35 2021
Timers Off: Thu Jan 21 12:34:38 2021

Wall Time:       63.60 seconds

                                                       Time (seconds)
Module                                       User      System        Wall        Calls

--------------------------------------------------------------------------------------

**************************************************************************************

Host: n093

Timers On : Thu Jan 21 12:34:39 2021
Timers Off: Thu Jan 21 12:37:42 2021

Wall Time:      183.71 seconds

                                                       Time (seconds)
Module                                       User      System        Wall        Calls

--------------------------------------------------------------------------------------

**************************************************************************************

Host: n093

Timers On : Thu Jan 21 12:37:43 2021
Timers Off: Thu Jan 21 12:48:59 2021

Wall Time:      676.31 seconds

                                                       Time (seconds)
Module                                       User      System        Wall        Calls

--------------------------------------------------------------------------------------

**************************************************************************************

Host: n093

Timers On : Thu Jan 21 12:49:01 2021
Timers Off: Thu Jan 21 13:54:20 2021

Wall Time:     3918.34 seconds

                                                       Time (seconds)
Module                                       User      System        Wall        Calls

--------------------------------------------------------------------------------------

**************************************************************************************

Host: n093

Timers On : Thu Jan 21 13:54:25 2021
Timers Off: Thu Jan 21 23:54:37 2021

Wall Time:    36012.26 seconds

                                                       Time (seconds)
Module                                       User      System        Wall        Calls

--------------------------------------------------------------------------------------

**************************************************************************************
