
    -----------------------------------------------------------------------
          Psi4: An Open-Source Ab Initio Electronic Structure Package
                               Psi4 1.3.2 release

                         Git: Rev {HEAD} ecbda83 


    R. M. Parrish, L. A. Burns, D. G. A. Smith, A. C. Simmonett,
    A. E. DePrince III, E. G. Hohenstein, U. Bozkaya, A. Yu. Sokolov,
    R. Di Remigio, R. M. Richard, J. F. Gonthier, A. M. James,
    H. R. McAlexander, A. Kumar, M. Saitow, X. Wang, B. P. Pritchard,
    P. Verma, H. F. Schaefer III, K. Patkowski, R. A. King, E. F. Valeev,
    F. A. Evangelista, J. M. Turney, T. D. Crawford, and C. D. Sherrill,
    J. Chem. Theory Comput. 13(7) pp 3185--3197 (2017).
    (doi: 10.1021/acs.jctc.7b00174)


                         Additional Contributions by
    P. Kraus, H. Kruse, M. H. Lechner, M. C. Schieber, R. A. Shaw,
    A. Alenaizan, R. Galvelis, Z. L. Glick, S. Lehtola, and J. P. Misiewicz

    -----------------------------------------------------------------------


    Psi4 started on: Monday, 22 July 2019 01:03PM

    Process ID: 18528
    Host:       adabbott
    PSIDATADIR: /home/adabbott/anaconda3/envs/peslearn/share/psi4
    Memory:     500.0 MiB
    Threads:    1
    
  ==> Input File <==

--------------------------------------------------------------------------
# density fitted hartree fock 
molecule h2o {
0 1
H 0.0000000000 0.0000000000 0.9500000000
H 0.0000000000 0.8613849024 -0.3135184647
O 0.0000000000 0.0000000000 0.0000000000
}

set scf_type pk
set basis 6-31g
gradient('hf')

--------------------------------------------------------------------------
gradient() will perform analytic gradient computation.

*** tstart() called on adabbott
*** at Mon Jul 22 13:03:21 2019

   => Loading Basis Set <=

    Name: 6-31G
    Role: ORBITAL
    Keyword: BASIS
    atoms 1-2 entry H          line    26 file /home/adabbott/anaconda3/envs/peslearn/share/psi4/basis/6-31g.gbs 
    atoms 3   entry O          line   117 file /home/adabbott/anaconda3/envs/peslearn/share/psi4/basis/6-31g.gbs 


         ---------------------------------------------------------
                                   SCF
               by Justin Turney, Rob Parrish, Andy Simmonett
                          and Daniel G. A. Smith
                              RHF Reference
                        1 Threads,    500 MiB Core
         ---------------------------------------------------------

  ==> Geometry <==

    Molecular point group: cs
    Full point group: Cs

    Geometry (in Angstrom), charge = 0, multiplicity = 1:

       Center              X                  Y                   Z               Mass       
    ------------   -----------------  -----------------  -----------------  -----------------
         H            0.048200891102    -0.914384124813     0.000000000000     1.007825032230
         H           -0.813184011298     0.349134339887     0.000000000000     1.007825032230
         O            0.048200891102     0.035615875187     0.000000000000    15.994914619570

  Running in cs symmetry.

  Rotational constants: A =     32.92290  B =     14.28987  C =      9.96476 [cm^-1]
  Rotational constants: A = 987003.85559  B = 428399.49365  C = 298736.01203 [MHz]
  Nuclear repulsion =    9.420550623079254

  Charge       = 0
  Multiplicity = 1
  Electrons    = 10
  Nalpha       = 5
  Nbeta        = 5

  ==> Algorithm <==

  SCF Algorithm Type is PK.
  DIIS enabled.
  MOM disabled.
  Fractional occupation disabled.
  Guess Type is SAD.
  Energy threshold   = 1.00e-08
  Density threshold  = 1.00e-08
  Integral threshold = 0.00e+00

  ==> Primary Basis <==

  Basis Set: 6-31G
    Blend: 6-31G
    Number of shells: 9
    Number of basis function: 13
    Number of Cartesian functions: 13
    Spherical Harmonics?: false
    Max angular momentum: 1

  ==> Pre-Iterations <==

   -------------------------------------------------------
    Irrep   Nso     Nmo     Nalpha   Nbeta   Ndocc  Nsocc
   -------------------------------------------------------
     A'        11      11       0       0       0       0
     A"         2       2       0       0       0       0
   -------------------------------------------------------
    Total      13      13       5       5       5       0
   -------------------------------------------------------

  ==> Integral Setup <==

  Using in-core PK algorithm.
   Calculation information:
      Number of atoms:                   3
      Number of AO shells:               9
      Number of primitives:             22
      Number of atomic orbitals:        13
      Number of basis functions:        13

      Integral cutoff                 1.00e-12
      Number of threads:                 1

  Performing in-core PK
  Using 8372 doubles for integral storage.
  We computed 1035 shell quartets total.
  Whereas there are 1035 unique shell quartets.

  ==> DiskJK: Disk-Based J/K Matrices <==

    J tasked:                  Yes
    K tasked:                  Yes
    wK tasked:                  No
    Memory [MiB]:              375
    Schwarz Cutoff:          1E-12

    OpenMP threads:              1

  Minimum eigenvalue in the overlap matrix is 6.5788510750E-02.
  Using Symmetric Orthogonalization.

  SCF Guess: Superposition of Atomic Densities via on-the-fly atomic UHF.

  ==> Iterations <==

                        Total Energy        Delta E     RMS |[F,P]|

   @RHF iter SAD:   -75.55367990316340   -7.55537e+01   0.00000e+00 
   @RHF iter   1:   -75.91296077898120   -3.59281e-01   3.62419e-02 DIIS
   @RHF iter   2:   -75.96607515671224   -5.31144e-02   2.02492e-02 DIIS
   @RHF iter   3:   -75.98368336934033   -1.76082e-02   1.68003e-03 DIIS
   @RHF iter   4:   -75.98397289542299   -2.89526e-04   2.77106e-04 DIIS
   @RHF iter   5:   -75.98398231408854   -9.41867e-06   4.51444e-05 DIIS
   @RHF iter   6:   -75.98398267044843   -3.56360e-07   8.78010e-06 DIIS
   @RHF iter   7:   -75.98398268465934   -1.42109e-08   1.58282e-06 DIIS
   @RHF iter   8:   -75.98398268508305   -4.23711e-10   2.53684e-07 DIIS
   @RHF iter   9:   -75.98398268508990   -6.84963e-12   2.54588e-08 DIIS
   @RHF iter  10:   -75.98398268509013   -2.27374e-13   2.86055e-09 DIIS
  Energy and wave function converged.


  ==> Post-Iterations <==

    Orbital Energies [Eh]
    ---------------------

    Doubly Occupied:                                                      

       1Ap   -20.551553     2Ap    -1.363548     3Ap    -0.733694  
       4Ap    -0.553523     1App   -0.500201  

    Virtual:                                                              

       5Ap     0.210433     6Ap     0.306778     7Ap     1.099287  
       2App    1.166410     8Ap     1.194574     9Ap     1.205455  
      10Ap     1.394838    11Ap     1.681196  

    Final Occupation by Irrep:
             Ap   App 
    DOCC [     4,    1 ]

  @RHF Final Energy:   -75.98398268509013

   => Energetics <=

    Nuclear Repulsion Energy =              9.4205506230792544
    One-Electron Energy =                -123.4040289833192077
    Two-Electron Energy =                  37.9994956751498378
    Total Energy =                        -75.9839826850901261

Computation Completed


Properties will be evaluated at   0.000000,   0.000000,   0.000000 [a0]

Properties computed using the SCF density matrix

  Nuclear Dipole Moment: [e a0]
     X:    -0.7169      Y:    -0.5297      Z:     0.0000

  Electronic Dipole Moment: [e a0]
     X:    -0.0909      Y:    -0.0467      Z:     0.0000

  Dipole Moment: [e a0]
     X:    -0.8078      Y:    -0.5765      Z:     0.0000     Total:     0.9924

  Dipole Moment: [D]
     X:    -2.0532      Y:    -1.4653      Z:     0.0000     Total:     2.5224


*** tstop() called on adabbott at Mon Jul 22 13:03:21 2019
Module time:
	user time   =       0.29 seconds =       0.00 minutes
	system time =       0.01 seconds =       0.00 minutes
	total time  =          0 seconds =       0.00 minutes
Total time:
	user time   =       0.29 seconds =       0.00 minutes
	system time =       0.01 seconds =       0.00 minutes
	total time  =          0 seconds =       0.00 minutes

*** tstart() called on adabbott
*** at Mon Jul 22 13:03:21 2019


         ------------------------------------------------------------
                                   SCF GRAD                          
                          Rob Parrish, Justin Turney,                
                       Andy Simmonett, and Alex Sokolov              
         ------------------------------------------------------------

  ==> Geometry <==

    Molecular point group: cs
    Full point group: Cs

    Geometry (in Angstrom), charge = 0, multiplicity = 1:

       Center              X                  Y                   Z               Mass       
    ------------   -----------------  -----------------  -----------------  -----------------
         H            0.048200891102    -0.914384124813     0.000000000000     1.007825032230
         H           -0.813184011298     0.349134339887     0.000000000000     1.007825032230
         O            0.048200891102     0.035615875187     0.000000000000    15.994914619570

  Nuclear repulsion =    9.420550623079254

  ==> Basis Set <==

  Basis Set: 6-31G
    Blend: 6-31G
    Number of shells: 9
    Number of basis function: 13
    Number of Cartesian functions: 13
    Spherical Harmonics?: false
    Max angular momentum: 1

  ==> DirectJKGrad: Integral-Direct SCF Gradients <==

    Gradient:                    1
    J tasked:                  Yes
    K tasked:                  Yes
    wK tasked:                  No
    Integrals threads:           1
    Schwarz Cutoff:          0E+00


  -Total Gradient:
     Atom            X                  Y                   Z
    ------   -----------------  -----------------  -----------------
       1       -0.004037582586     0.000123613627     0.000000000000
       2        0.038654579743    -0.018522066739     0.000000000000
       3       -0.034616997156     0.018398453112     0.000000000000


*** tstop() called on adabbott at Mon Jul 22 13:03:21 2019
Module time:
	user time   =       0.05 seconds =       0.00 minutes
	system time =       0.00 seconds =       0.00 minutes
	total time  =          0 seconds =       0.00 minutes
Total time:
	user time   =       0.34 seconds =       0.01 minutes
	system time =       0.01 seconds =       0.00 minutes
	total time  =          0 seconds =       0.00 minutes

    Psi4 stopped on: Monday, 22 July 2019 01:03PM
    Psi4 wall time for execution: 0:00:00.36

*** Psi4 exiting successfully. Buy a developer a beer!
