
Host: adabbott

Timers On : Mon Oct  5 13:48:22 2020
Timers Off: Mon Oct  5 13:48:23 2020

Wall Time:        0.67 seconds

                                                       Time (seconds)
Module                                       User      System        Wall        Calls

--------------------------------------------------------------------------------------

**************************************************************************************

Host: adabbott

Timers On : Mon Oct  5 13:49:28 2020
Timers Off: Mon Oct  5 13:49:29 2020

Wall Time:        0.67 seconds

                                                       Time (seconds)
Module                                       User      System        Wall        Calls

--------------------------------------------------------------------------------------

**************************************************************************************

Host: adabbott

Timers On : Mon Oct  5 13:49:54 2020
Timers Off: Mon Oct  5 13:49:55 2020

Wall Time:        0.70 seconds

                                                       Time (seconds)
Module                                       User      System        Wall        Calls

--------------------------------------------------------------------------------------

**************************************************************************************

Host: adabbott

Timers On : Mon Oct  5 13:50:02 2020
Timers Off: Mon Oct  5 13:50:03 2020

Wall Time:        0.72 seconds

                                                       Time (seconds)
Module                                       User      System        Wall        Calls

--------------------------------------------------------------------------------------

**************************************************************************************

Host: adabbott

Timers On : Mon Oct  5 13:52:06 2020
Timers Off: Mon Oct  5 13:52:06 2020

Wall Time:        0.68 seconds

                                                       Time (seconds)
Module                                       User      System        Wall        Calls

--------------------------------------------------------------------------------------

**************************************************************************************

Host: adabbott

Timers On : Mon Oct  5 13:53:12 2020
Timers Off: Mon Oct  5 13:53:13 2020

Wall Time:        0.73 seconds

                                                       Time (seconds)
Module                                       User      System        Wall        Calls

--------------------------------------------------------------------------------------

**************************************************************************************

Host: adabbott

Timers On : Mon Oct  5 13:54:13 2020
Timers Off: Mon Oct  5 13:54:14 2020

Wall Time:        0.61 seconds

                                                       Time (seconds)
Module                                       User      System        Wall        Calls

--------------------------------------------------------------------------------------

**************************************************************************************

Host: adabbott

Timers On : Mon Oct  5 13:55:33 2020
Timers Off: Mon Oct  5 13:55:34 2020

Wall Time:        0.66 seconds

                                                       Time (seconds)
Module                                       User      System        Wall        Calls

--------------------------------------------------------------------------------------

**************************************************************************************

Host: adabbott

Timers On : Mon Oct  5 13:56:51 2020
Timers Off: Mon Oct  5 13:56:52 2020

Wall Time:        0.68 seconds

                                                       Time (seconds)
Module                                       User      System        Wall        Calls

--------------------------------------------------------------------------------------

**************************************************************************************

Host: adabbott

Timers On : Mon Oct  5 13:57:44 2020
Timers Off: Mon Oct  5 13:57:44 2020

Wall Time:        0.64 seconds

                                                       Time (seconds)
Module                                       User      System        Wall        Calls

--------------------------------------------------------------------------------------

**************************************************************************************

Host: adabbott

Timers On : Mon Oct  5 13:58:02 2020
Timers Off: Mon Oct  5 13:58:02 2020

Wall Time:        0.64 seconds

                                                       Time (seconds)
Module                                       User      System        Wall        Calls

--------------------------------------------------------------------------------------

**************************************************************************************

Host: adabbott

Timers On : Mon Oct  5 13:59:12 2020
Timers Off: Mon Oct  5 13:59:13 2020

Wall Time:        0.64 seconds

                                                       Time (seconds)
Module                                       User      System        Wall        Calls

--------------------------------------------------------------------------------------

**************************************************************************************

Host: adabbott

Timers On : Mon Oct  5 13:59:34 2020
Timers Off: Mon Oct  5 13:59:35 2020

Wall Time:        0.67 seconds

                                                       Time (seconds)
Module                                       User      System        Wall        Calls

--------------------------------------------------------------------------------------

**************************************************************************************

Host: adabbott

Timers On : Mon Oct  5 14:00:37 2020
Timers Off: Mon Oct  5 14:00:38 2020

Wall Time:        0.67 seconds

                                                       Time (seconds)
Module                                       User      System        Wall        Calls

--------------------------------------------------------------------------------------

**************************************************************************************

Host: adabbott

Timers On : Mon Oct  5 14:00:49 2020
Timers Off: Mon Oct  5 14:00:50 2020

Wall Time:        0.79 seconds

                                                       Time (seconds)
Module                                       User      System        Wall        Calls

--------------------------------------------------------------------------------------

**************************************************************************************

Host: adabbott

Timers On : Mon Oct  5 14:02:05 2020
Timers Off: Mon Oct  5 14:02:05 2020

Wall Time:        0.77 seconds

                                                       Time (seconds)
Module                                       User      System        Wall        Calls

--------------------------------------------------------------------------------------

**************************************************************************************

Host: adabbott

Timers On : Mon Oct  5 14:02:17 2020
Timers Off: Mon Oct  5 14:02:18 2020

Wall Time:        0.80 seconds

                                                       Time (seconds)
Module                                       User      System        Wall        Calls

--------------------------------------------------------------------------------------

**************************************************************************************

Host: adabbott

Timers On : Mon Oct  5 14:02:31 2020
Timers Off: Mon Oct  5 14:02:32 2020

Wall Time:        0.81 seconds

                                                       Time (seconds)
Module                                       User      System        Wall        Calls

--------------------------------------------------------------------------------------

**************************************************************************************

Host: adabbott

Timers On : Mon Oct  5 14:06:49 2020
Timers Off: Mon Oct  5 14:06:49 2020

Wall Time:        0.78 seconds

                                                       Time (seconds)
Module                                       User      System        Wall        Calls

--------------------------------------------------------------------------------------

**************************************************************************************

Host: adabbott

Timers On : Mon Oct  5 14:09:59 2020
Timers Off: Mon Oct  5 14:10:00 2020

Wall Time:        0.79 seconds

                                                       Time (seconds)
Module                                       User      System        Wall        Calls

--------------------------------------------------------------------------------------

**************************************************************************************

Host: adabbott

Timers On : Mon Oct  5 14:10:20 2020
Timers Off: Mon Oct  5 14:10:21 2020

Wall Time:        0.79 seconds

                                                       Time (seconds)
Module                                       User      System        Wall        Calls

--------------------------------------------------------------------------------------

**************************************************************************************

Host: adabbott

Timers On : Mon Oct  5 14:11:32 2020
Timers Off: Mon Oct  5 14:11:33 2020

Wall Time:        0.78 seconds

                                                       Time (seconds)
Module                                       User      System        Wall        Calls

--------------------------------------------------------------------------------------

**************************************************************************************

Host: adabbott

Timers On : Mon Oct  5 14:12:19 2020
Timers Off: Mon Oct  5 14:12:20 2020

Wall Time:        0.78 seconds

                                                       Time (seconds)
Module                                       User      System        Wall        Calls

--------------------------------------------------------------------------------------

**************************************************************************************

Host: adabbott

Timers On : Mon Oct  5 14:12:53 2020
Timers Off: Mon Oct  5 14:12:54 2020

Wall Time:        0.78 seconds

                                                       Time (seconds)
Module                                       User      System        Wall        Calls

--------------------------------------------------------------------------------------

**************************************************************************************

Host: adabbott

Timers On : Mon Oct  5 14:15:32 2020
Timers Off: Mon Oct  5 14:15:32 2020

Wall Time:        0.78 seconds

                                                       Time (seconds)
Module                                       User      System        Wall        Calls

--------------------------------------------------------------------------------------

**************************************************************************************

Host: adabbott

Timers On : Mon Oct  5 14:16:24 2020
Timers Off: Mon Oct  5 14:16:25 2020

Wall Time:        0.78 seconds

                                                       Time (seconds)
Module                                       User      System        Wall        Calls

--------------------------------------------------------------------------------------

**************************************************************************************

Host: adabbott

Timers On : Mon Oct  5 14:23:50 2020
Timers Off: Mon Oct  5 14:23:50 2020

Wall Time:        0.82 seconds

                                                       Time (seconds)
Module                                       User      System        Wall        Calls

--------------------------------------------------------------------------------------

**************************************************************************************

Host: adabbott

Timers On : Mon Oct  5 14:24:15 2020
Timers Off: Mon Oct  5 14:24:16 2020

Wall Time:        0.78 seconds

                                                       Time (seconds)
Module                                       User      System        Wall        Calls

--------------------------------------------------------------------------------------

**************************************************************************************

Host: adabbott

Timers On : Mon Oct  5 14:24:30 2020
Timers Off: Mon Oct  5 14:24:31 2020

Wall Time:        0.78 seconds

                                                       Time (seconds)
Module                                       User      System        Wall        Calls

--------------------------------------------------------------------------------------

**************************************************************************************

Host: adabbott

Timers On : Mon Oct  5 14:24:52 2020
Timers Off: Mon Oct  5 14:24:52 2020

Wall Time:        0.78 seconds

                                                       Time (seconds)
Module                                       User      System        Wall        Calls

--------------------------------------------------------------------------------------

**************************************************************************************

Host: adabbott

Timers On : Mon Oct  5 14:25:05 2020
Timers Off: Mon Oct  5 14:25:05 2020

Wall Time:        0.79 seconds

                                                       Time (seconds)
Module                                       User      System        Wall        Calls

--------------------------------------------------------------------------------------

**************************************************************************************

Host: adabbott

Timers On : Mon Oct  5 14:43:34 2020
Timers Off: Mon Oct  5 14:43:35 2020

Wall Time:        0.78 seconds

                                                       Time (seconds)
Module                                       User      System        Wall        Calls

--------------------------------------------------------------------------------------

**************************************************************************************

Host: adabbott

Timers On : Mon Oct  5 14:44:39 2020
Timers Off: Mon Oct  5 14:44:40 2020

Wall Time:        0.79 seconds

                                                       Time (seconds)
Module                                       User      System        Wall        Calls

--------------------------------------------------------------------------------------

**************************************************************************************

Host: adabbott

Timers On : Mon Oct  5 14:44:55 2020
Timers Off: Mon Oct  5 14:44:56 2020

Wall Time:        0.79 seconds

                                                       Time (seconds)
Module                                       User      System        Wall        Calls

--------------------------------------------------------------------------------------

**************************************************************************************

Host: adabbott

Timers On : Mon Oct  5 14:45:14 2020
Timers Off: Mon Oct  5 14:45:15 2020

Wall Time:        0.80 seconds

                                                       Time (seconds)
Module                                       User      System        Wall        Calls

--------------------------------------------------------------------------------------

**************************************************************************************

Host: adabbott

Timers On : Mon Oct  5 14:46:49 2020
Timers Off: Mon Oct  5 14:46:50 2020

Wall Time:        0.82 seconds

                                                       Time (seconds)
Module                                       User      System        Wall        Calls

--------------------------------------------------------------------------------------

**************************************************************************************

Host: adabbott

Timers On : Mon Oct  5 14:46:57 2020
Timers Off: Mon Oct  5 14:46:58 2020

Wall Time:        0.82 seconds

                                                       Time (seconds)
Module                                       User      System        Wall        Calls

--------------------------------------------------------------------------------------

**************************************************************************************

Host: adabbott

Timers On : Mon Oct  5 14:56:01 2020
Timers Off: Mon Oct  5 14:56:01 2020

Wall Time:        0.67 seconds

                                                       Time (seconds)
Module                                       User      System        Wall        Calls

--------------------------------------------------------------------------------------

**************************************************************************************

Host: adabbott

Timers On : Mon Oct  5 14:57:50 2020
Timers Off: Mon Oct  5 14:57:51 2020

Wall Time:        0.85 seconds

                                                       Time (seconds)
Module                                       User      System        Wall        Calls

--------------------------------------------------------------------------------------

**************************************************************************************

Host: adabbott

Timers On : Mon Oct  5 14:58:07 2020
Timers Off: Mon Oct  5 14:58:08 2020

Wall Time:        0.85 seconds

                                                       Time (seconds)
Module                                       User      System        Wall        Calls

--------------------------------------------------------------------------------------

**************************************************************************************

Host: adabbott

Timers On : Mon Oct  5 14:58:19 2020
Timers Off: Mon Oct  5 14:58:20 2020

Wall Time:        0.82 seconds

                                                       Time (seconds)
Module                                       User      System        Wall        Calls

--------------------------------------------------------------------------------------

**************************************************************************************

Host: adabbott

Timers On : Mon Oct  5 15:09:49 2020
Timers Off: Mon Oct  5 15:09:50 2020

Wall Time:        0.78 seconds

                                                       Time (seconds)
Module                                       User      System        Wall        Calls

--------------------------------------------------------------------------------------

**************************************************************************************

Host: adabbott

Timers On : Mon Oct  5 15:10:04 2020
Timers Off: Mon Oct  5 15:10:05 2020

Wall Time:        0.78 seconds

                                                       Time (seconds)
Module                                       User      System        Wall        Calls

--------------------------------------------------------------------------------------

**************************************************************************************

Host: adabbott

Timers On : Mon Oct  5 15:12:33 2020
Timers Off: Mon Oct  5 15:12:34 2020

Wall Time:        1.08 seconds

                                                       Time (seconds)
Module                                       User      System        Wall        Calls

--------------------------------------------------------------------------------------

**************************************************************************************

Host: adabbott

Timers On : Mon Oct  5 15:12:52 2020
Timers Off: Mon Oct  5 15:12:53 2020

Wall Time:        1.05 seconds

                                                       Time (seconds)
Module                                       User      System        Wall        Calls

--------------------------------------------------------------------------------------

**************************************************************************************

Host: adabbott

Timers On : Mon Oct  5 15:13:20 2020
Timers Off: Mon Oct  5 15:13:21 2020

Wall Time:        1.09 seconds

                                                       Time (seconds)
Module                                       User      System        Wall        Calls

--------------------------------------------------------------------------------------

**************************************************************************************

Host: adabbott

Timers On : Mon Oct  5 15:14:12 2020
Timers Off: Mon Oct  5 15:14:13 2020

Wall Time:        1.10 seconds

                                                       Time (seconds)
Module                                       User      System        Wall        Calls

--------------------------------------------------------------------------------------

**************************************************************************************

Host: adabbott

Timers On : Mon Oct  5 15:14:27 2020
Timers Off: Mon Oct  5 15:14:28 2020

Wall Time:        1.12 seconds

                                                       Time (seconds)
Module                                       User      System        Wall        Calls

--------------------------------------------------------------------------------------

**************************************************************************************

Host: adabbott

Timers On : Mon Oct  5 15:14:51 2020
Timers Off: Mon Oct  5 15:14:52 2020

Wall Time:        1.13 seconds

                                                       Time (seconds)
Module                                       User      System        Wall        Calls

--------------------------------------------------------------------------------------

**************************************************************************************

Host: adabbott

Timers On : Mon Oct  5 15:15:19 2020
Timers Off: Mon Oct  5 15:15:20 2020

Wall Time:        1.12 seconds

                                                       Time (seconds)
Module                                       User      System        Wall        Calls

--------------------------------------------------------------------------------------

**************************************************************************************

Host: adabbott

Timers On : Mon Oct  5 15:18:47 2020
Timers Off: Mon Oct  5 15:18:51 2020

Wall Time:        4.12 seconds

                                                       Time (seconds)
Module                                       User      System        Wall        Calls

--------------------------------------------------------------------------------------

**************************************************************************************

Host: adabbott

Timers On : Mon Oct  5 15:21:19 2020
Timers Off: Mon Oct  5 15:21:23 2020

Wall Time:        4.11 seconds

                                                       Time (seconds)
Module                                       User      System        Wall        Calls

--------------------------------------------------------------------------------------

**************************************************************************************

Host: adabbott

Timers On : Mon Oct  5 15:22:55 2020
Timers Off: Mon Oct  5 15:22:59 2020

Wall Time:        4.02 seconds

                                                       Time (seconds)
Module                                       User      System        Wall        Calls

--------------------------------------------------------------------------------------

**************************************************************************************

Host: adabbott

Timers On : Mon Oct  5 15:26:35 2020
Timers Off: Mon Oct  5 15:26:40 2020

Wall Time:        4.40 seconds

                                                       Time (seconds)
Module                                       User      System        Wall        Calls

--------------------------------------------------------------------------------------

**************************************************************************************

Host: adabbott

Timers On : Mon Oct  5 15:27:19 2020
Timers Off: Mon Oct  5 15:27:23 2020

Wall Time:        4.07 seconds

                                                       Time (seconds)
Module                                       User      System        Wall        Calls

--------------------------------------------------------------------------------------

**************************************************************************************

Host: adabbott

Timers On : Mon Oct  5 15:27:53 2020
Timers Off: Mon Oct  5 15:27:58 2020

Wall Time:        4.09 seconds

                                                       Time (seconds)
Module                                       User      System        Wall        Calls

--------------------------------------------------------------------------------------

**************************************************************************************

Host: adabbott

Timers On : Mon Oct  5 15:28:22 2020
Timers Off: Mon Oct  5 15:28:26 2020

Wall Time:        4.10 seconds

                                                       Time (seconds)
Module                                       User      System        Wall        Calls

--------------------------------------------------------------------------------------

**************************************************************************************

Host: adabbott

Timers On : Mon Oct  5 15:28:52 2020
Timers Off: Mon Oct  5 15:28:56 2020

Wall Time:        4.13 seconds

                                                       Time (seconds)
Module                                       User      System        Wall        Calls

--------------------------------------------------------------------------------------

**************************************************************************************

Host: adabbott

Timers On : Mon Oct  5 15:30:19 2020
Timers Off: Mon Oct  5 15:30:24 2020

Wall Time:        4.12 seconds

                                                       Time (seconds)
Module                                       User      System        Wall        Calls

--------------------------------------------------------------------------------------

**************************************************************************************

Host: adabbott

Timers On : Mon Oct  5 15:30:38 2020
Timers Off: Mon Oct  5 15:30:42 2020

Wall Time:        4.14 seconds

                                                       Time (seconds)
Module                                       User      System        Wall        Calls

--------------------------------------------------------------------------------------

**************************************************************************************

Host: adabbott

Timers On : Mon Oct  5 15:31:37 2020
Timers Off: Mon Oct  5 15:31:41 2020

Wall Time:        4.17 seconds

                                                       Time (seconds)
Module                                       User      System        Wall        Calls

--------------------------------------------------------------------------------------

**************************************************************************************

Host: adabbott

Timers On : Mon Oct  5 15:32:05 2020
Timers Off: Mon Oct  5 15:32:09 2020

Wall Time:        4.46 seconds

                                                       Time (seconds)
Module                                       User      System        Wall        Calls

--------------------------------------------------------------------------------------

**************************************************************************************

Host: adabbott

Timers On : Mon Oct  5 15:35:59 2020
Timers Off: Mon Oct  5 15:36:03 2020

Wall Time:        3.95 seconds

                                                       Time (seconds)
Module                                       User      System        Wall        Calls

--------------------------------------------------------------------------------------

**************************************************************************************

Host: adabbott

Timers On : Mon Oct  5 15:36:14 2020
Timers Off: Mon Oct  5 15:36:18 2020

Wall Time:        4.20 seconds

                                                       Time (seconds)
Module                                       User      System        Wall        Calls

--------------------------------------------------------------------------------------

**************************************************************************************

Host: adabbott

Timers On : Mon Oct  5 15:37:45 2020
Timers Off: Mon Oct  5 15:37:48 2020

Wall Time:        3.96 seconds

                                                       Time (seconds)
Module                                       User      System        Wall        Calls

--------------------------------------------------------------------------------------

**************************************************************************************

Host: adabbott

Timers On : Mon Oct  5 15:37:57 2020
Timers Off: Mon Oct  5 15:38:01 2020

Wall Time:        4.22 seconds

                                                       Time (seconds)
Module                                       User      System        Wall        Calls

--------------------------------------------------------------------------------------

**************************************************************************************

Host: adabbott

Timers On : Mon Oct  5 15:39:15 2020
Timers Off: Mon Oct  5 15:39:20 2020

Wall Time:        4.31 seconds

                                                       Time (seconds)
Module                                       User      System        Wall        Calls

--------------------------------------------------------------------------------------

**************************************************************************************

Host: adabbott

Timers On : Mon Oct  5 15:59:29 2020
Timers Off: Mon Oct  5 15:59:33 2020

Wall Time:        4.39 seconds

                                                       Time (seconds)
Module                                       User      System        Wall        Calls

--------------------------------------------------------------------------------------

**************************************************************************************

Host: adabbott

Timers On : Mon Oct  5 16:00:30 2020
Timers Off: Mon Oct  5 16:01:10 2020

Wall Time:       39.70 seconds

                                                       Time (seconds)
Module                                       User      System        Wall        Calls

--------------------------------------------------------------------------------------

**************************************************************************************

Host: adabbott

Timers On : Mon Oct  5 16:02:22 2020
Timers Off: Mon Oct  5 16:02:26 2020

Wall Time:        4.36 seconds

                                                       Time (seconds)
Module                                       User      System        Wall        Calls

--------------------------------------------------------------------------------------

**************************************************************************************

Host: adabbott

Timers On : Mon Oct  5 16:09:23 2020
Timers Off: Mon Oct  5 16:09:24 2020

Wall Time:        0.64 seconds

                                                       Time (seconds)
Module                                       User      System        Wall        Calls

--------------------------------------------------------------------------------------

**************************************************************************************

Host: adabbott

Timers On : Mon Oct  5 16:09:36 2020
Timers Off: Mon Oct  5 16:09:36 2020

Wall Time:        0.69 seconds

                                                       Time (seconds)
Module                                       User      System        Wall        Calls

--------------------------------------------------------------------------------------

**************************************************************************************

Host: adabbott

Timers On : Mon Oct  5 16:11:42 2020
Timers Off: Mon Oct  5 16:11:42 2020

Wall Time:        0.71 seconds

                                                       Time (seconds)
Module                                       User      System        Wall        Calls

--------------------------------------------------------------------------------------

**************************************************************************************

Host: adabbott

Timers On : Mon Oct  5 16:12:11 2020
Timers Off: Mon Oct  5 16:12:12 2020

Wall Time:        0.72 seconds

                                                       Time (seconds)
Module                                       User      System        Wall        Calls

--------------------------------------------------------------------------------------

**************************************************************************************

Host: adabbott

Timers On : Mon Oct  5 16:14:11 2020
Timers Off: Mon Oct  5 16:14:13 2020

Wall Time:        1.44 seconds

                                                       Time (seconds)
Module                                       User      System        Wall        Calls

--------------------------------------------------------------------------------------

**************************************************************************************

Host: adabbott

Timers On : Mon Oct  5 16:14:21 2020
Timers Off: Mon Oct  5 16:14:26 2020

Wall Time:        4.81 seconds

                                                       Time (seconds)
Module                                       User      System        Wall        Calls

--------------------------------------------------------------------------------------

**************************************************************************************

Host: adabbott

Timers On : Mon Oct  5 16:38:19 2020
Timers Off: Mon Oct  5 16:38:21 2020

Wall Time:        1.48 seconds

                                                       Time (seconds)
Module                                       User      System        Wall        Calls

--------------------------------------------------------------------------------------

**************************************************************************************

Host: adabbott

Timers On : Mon Oct  5 16:38:52 2020
Timers Off: Mon Oct  5 16:38:54 2020

Wall Time:        1.47 seconds

                                                       Time (seconds)
Module                                       User      System        Wall        Calls

--------------------------------------------------------------------------------------

**************************************************************************************

Host: adabbott

Timers On : Mon Oct  5 16:58:16 2020
Timers Off: Mon Oct  5 16:58:18 2020

Wall Time:        1.47 seconds

                                                       Time (seconds)
Module                                       User      System        Wall        Calls

--------------------------------------------------------------------------------------

**************************************************************************************

Host: adabbott

Timers On : Mon Oct  5 17:00:28 2020
Timers Off: Mon Oct  5 17:00:30 2020

Wall Time:        1.50 seconds

                                                       Time (seconds)
Module                                       User      System        Wall        Calls

--------------------------------------------------------------------------------------

**************************************************************************************

Host: adabbott

Timers On : Mon Oct  5 17:01:33 2020
Timers Off: Mon Oct  5 17:01:34 2020

Wall Time:        1.48 seconds

                                                       Time (seconds)
Module                                       User      System        Wall        Calls

--------------------------------------------------------------------------------------

**************************************************************************************

Host: adabbott

Timers On : Mon Oct  5 17:01:46 2020
Timers Off: Mon Oct  5 17:01:47 2020

Wall Time:        1.45 seconds

                                                       Time (seconds)
Module                                       User      System        Wall        Calls

--------------------------------------------------------------------------------------

**************************************************************************************

Host: adabbott

Timers On : Mon Oct  5 17:15:50 2020
Timers Off: Mon Oct  5 17:15:51 2020

Wall Time:        1.51 seconds

                                                       Time (seconds)
Module                                       User      System        Wall        Calls

--------------------------------------------------------------------------------------

**************************************************************************************

Host: adabbott

Timers On : Mon Oct  5 17:18:24 2020
Timers Off: Mon Oct  5 17:18:26 2020

Wall Time:        1.50 seconds

                                                       Time (seconds)
Module                                       User      System        Wall        Calls

--------------------------------------------------------------------------------------

**************************************************************************************

Host: adabbott

Timers On : Mon Oct  5 17:18:47 2020
Timers Off: Mon Oct  5 17:18:48 2020

Wall Time:        1.48 seconds

                                                       Time (seconds)
Module                                       User      System        Wall        Calls

--------------------------------------------------------------------------------------

**************************************************************************************

Host: adabbott

Timers On : Mon Oct  5 17:19:09 2020
Timers Off: Mon Oct  5 17:19:10 2020

Wall Time:        1.49 seconds

                                                       Time (seconds)
Module                                       User      System        Wall        Calls

--------------------------------------------------------------------------------------

**************************************************************************************

Host: adabbott

Timers On : Mon Oct  5 17:19:21 2020
Timers Off: Mon Oct  5 17:19:23 2020

Wall Time:        1.48 seconds

                                                       Time (seconds)
Module                                       User      System        Wall        Calls

--------------------------------------------------------------------------------------

**************************************************************************************

Host: adabbott

Timers On : Mon Oct  5 17:19:48 2020
Timers Off: Mon Oct  5 17:19:49 2020

Wall Time:        1.48 seconds

                                                       Time (seconds)
Module                                       User      System        Wall        Calls

--------------------------------------------------------------------------------------

**************************************************************************************

Host: adabbott

Timers On : Mon Oct  5 17:20:03 2020
Timers Off: Mon Oct  5 17:20:05 2020

Wall Time:        1.54 seconds

                                                       Time (seconds)
Module                                       User      System        Wall        Calls

--------------------------------------------------------------------------------------

**************************************************************************************

Host: adabbott

Timers On : Mon Oct  5 17:20:16 2020
Timers Off: Mon Oct  5 17:20:18 2020

Wall Time:        1.51 seconds

                                                       Time (seconds)
Module                                       User      System        Wall        Calls

--------------------------------------------------------------------------------------

**************************************************************************************

Host: adabbott

Timers On : Mon Oct  5 17:20:40 2020
Timers Off: Mon Oct  5 17:20:42 2020

Wall Time:        1.52 seconds

                                                       Time (seconds)
Module                                       User      System        Wall        Calls

--------------------------------------------------------------------------------------

**************************************************************************************

Host: adabbott

Timers On : Mon Oct  5 17:21:31 2020
Timers Off: Mon Oct  5 17:21:33 2020

Wall Time:        1.51 seconds

                                                       Time (seconds)
Module                                       User      System        Wall        Calls

--------------------------------------------------------------------------------------

**************************************************************************************

Host: adabbott

Timers On : Mon Oct  5 17:21:46 2020
Timers Off: Mon Oct  5 17:21:48 2020

Wall Time:        1.49 seconds

                                                       Time (seconds)
Module                                       User      System        Wall        Calls

--------------------------------------------------------------------------------------

**************************************************************************************

Host: adabbott

Timers On : Mon Oct  5 17:22:11 2020
Timers Off: Mon Oct  5 17:22:12 2020

Wall Time:        1.49 seconds

                                                       Time (seconds)
Module                                       User      System        Wall        Calls

--------------------------------------------------------------------------------------

**************************************************************************************

Host: adabbott

Timers On : Mon Oct  5 17:22:37 2020
Timers Off: Mon Oct  5 17:22:39 2020

Wall Time:        1.48 seconds

                                                       Time (seconds)
Module                                       User      System        Wall        Calls

--------------------------------------------------------------------------------------

**************************************************************************************

Host: adabbott

Timers On : Mon Oct  5 17:23:46 2020
Timers Off: Mon Oct  5 17:23:48 2020

Wall Time:        1.50 seconds

                                                       Time (seconds)
Module                                       User      System        Wall        Calls

--------------------------------------------------------------------------------------

**************************************************************************************

Host: adabbott

Timers On : Mon Oct  5 17:24:36 2020
Timers Off: Mon Oct  5 17:24:38 2020

Wall Time:        1.48 seconds

                                                       Time (seconds)
Module                                       User      System        Wall        Calls

--------------------------------------------------------------------------------------

**************************************************************************************

Host: adabbott

Timers On : Mon Oct  5 17:24:49 2020
Timers Off: Mon Oct  5 17:24:51 2020

Wall Time:        1.51 seconds

                                                       Time (seconds)
Module                                       User      System        Wall        Calls

--------------------------------------------------------------------------------------

**************************************************************************************

Host: adabbott

Timers On : Mon Oct  5 17:24:59 2020
Timers Off: Mon Oct  5 17:25:01 2020

Wall Time:        1.48 seconds

                                                       Time (seconds)
Module                                       User      System        Wall        Calls

--------------------------------------------------------------------------------------

**************************************************************************************

Host: adabbott

Timers On : Mon Oct  5 17:25:17 2020
Timers Off: Mon Oct  5 17:25:18 2020

Wall Time:        1.56 seconds

                                                       Time (seconds)
Module                                       User      System        Wall        Calls

--------------------------------------------------------------------------------------

**************************************************************************************

Host: adabbott

Timers On : Mon Oct  5 17:25:32 2020
Timers Off: Mon Oct  5 17:25:34 2020

Wall Time:        1.57 seconds

                                                       Time (seconds)
Module                                       User      System        Wall        Calls

--------------------------------------------------------------------------------------

**************************************************************************************

Host: adabbott

Timers On : Mon Oct  5 17:26:07 2020
Timers Off: Mon Oct  5 17:26:08 2020

Wall Time:        1.59 seconds

                                                       Time (seconds)
Module                                       User      System        Wall        Calls

--------------------------------------------------------------------------------------

**************************************************************************************

Host: adabbott

Timers On : Mon Oct  5 17:26:30 2020
Timers Off: Mon Oct  5 17:26:31 2020

Wall Time:        1.57 seconds

                                                       Time (seconds)
Module                                       User      System        Wall        Calls

--------------------------------------------------------------------------------------

**************************************************************************************

Host: adabbott

Timers On : Mon Oct  5 17:26:58 2020
Timers Off: Mon Oct  5 17:26:59 2020

Wall Time:        1.52 seconds

                                                       Time (seconds)
Module                                       User      System        Wall        Calls

--------------------------------------------------------------------------------------

**************************************************************************************

Host: adabbott

Timers On : Mon Oct  5 17:27:11 2020
Timers Off: Mon Oct  5 17:27:13 2020

Wall Time:        1.54 seconds

                                                       Time (seconds)
Module                                       User      System        Wall        Calls

--------------------------------------------------------------------------------------

**************************************************************************************

Host: adabbott

Timers On : Mon Oct  5 17:27:17 2020
Timers Off: Mon Oct  5 17:27:19 2020

Wall Time:        1.49 seconds

                                                       Time (seconds)
Module                                       User      System        Wall        Calls

--------------------------------------------------------------------------------------

**************************************************************************************

Host: adabbott

Timers On : Mon Oct  5 17:28:11 2020
Timers Off: Mon Oct  5 17:28:12 2020

Wall Time:        1.53 seconds

                                                       Time (seconds)
Module                                       User      System        Wall        Calls

--------------------------------------------------------------------------------------

**************************************************************************************

Host: adabbott

Timers On : Mon Oct  5 17:28:44 2020
Timers Off: Mon Oct  5 17:28:46 2020

Wall Time:        1.51 seconds

                                                       Time (seconds)
Module                                       User      System        Wall        Calls

--------------------------------------------------------------------------------------

**************************************************************************************

Host: adabbott

Timers On : Mon Oct  5 17:29:18 2020
Timers Off: Mon Oct  5 17:29:20 2020

Wall Time:        1.52 seconds

                                                       Time (seconds)
Module                                       User      System        Wall        Calls

--------------------------------------------------------------------------------------

**************************************************************************************

Host: adabbott

Timers On : Mon Oct  5 17:29:40 2020
Timers Off: Mon Oct  5 17:29:42 2020

Wall Time:        1.51 seconds

                                                       Time (seconds)
Module                                       User      System        Wall        Calls

--------------------------------------------------------------------------------------

**************************************************************************************

Host: adabbott

Timers On : Mon Oct  5 17:29:58 2020
Timers Off: Mon Oct  5 17:29:59 2020

Wall Time:        1.48 seconds

                                                       Time (seconds)
Module                                       User      System        Wall        Calls

--------------------------------------------------------------------------------------

**************************************************************************************

Host: adabbott

Timers On : Mon Oct  5 17:32:26 2020
Timers Off: Mon Oct  5 17:32:27 2020

Wall Time:        1.45 seconds

                                                       Time (seconds)
Module                                       User      System        Wall        Calls

--------------------------------------------------------------------------------------

**************************************************************************************

Host: adabbott

Timers On : Mon Oct  5 17:32:40 2020
Timers Off: Mon Oct  5 17:32:42 2020

Wall Time:        1.53 seconds

                                                       Time (seconds)
Module                                       User      System        Wall        Calls

--------------------------------------------------------------------------------------

**************************************************************************************

Host: adabbott

Timers On : Mon Oct  5 17:32:56 2020
Timers Off: Mon Oct  5 17:32:58 2020

Wall Time:        1.49 seconds

                                                       Time (seconds)
Module                                       User      System        Wall        Calls

--------------------------------------------------------------------------------------

**************************************************************************************

Host: adabbott

Timers On : Mon Oct  5 17:33:25 2020
Timers Off: Mon Oct  5 17:33:27 2020

Wall Time:        1.66 seconds

                                                       Time (seconds)
Module                                       User      System        Wall        Calls

--------------------------------------------------------------------------------------

**************************************************************************************

Host: adabbott

Timers On : Mon Oct  5 17:33:38 2020
Timers Off: Mon Oct  5 17:33:40 2020

Wall Time:        1.65 seconds

                                                       Time (seconds)
Module                                       User      System        Wall        Calls

--------------------------------------------------------------------------------------

**************************************************************************************

Host: adabbott

Timers On : Mon Oct  5 17:34:05 2020
Timers Off: Mon Oct  5 17:34:07 2020

Wall Time:        1.64 seconds

                                                       Time (seconds)
Module                                       User      System        Wall        Calls

--------------------------------------------------------------------------------------

**************************************************************************************

Host: adabbott

Timers On : Mon Oct  5 17:34:14 2020
Timers Off: Mon Oct  5 17:34:16 2020

Wall Time:        1.66 seconds

                                                       Time (seconds)
Module                                       User      System        Wall        Calls

--------------------------------------------------------------------------------------

**************************************************************************************

Host: adabbott

Timers On : Mon Oct  5 17:34:35 2020
Timers Off: Mon Oct  5 17:34:37 2020

Wall Time:        1.85 seconds

                                                       Time (seconds)
Module                                       User      System        Wall        Calls

--------------------------------------------------------------------------------------

**************************************************************************************

Host: adabbott

Timers On : Mon Oct  5 17:34:43 2020
Timers Off: Mon Oct  5 17:34:46 2020

Wall Time:        2.75 seconds

                                                       Time (seconds)
Module                                       User      System        Wall        Calls

--------------------------------------------------------------------------------------

**************************************************************************************

Host: adabbott

Timers On : Mon Oct  5 17:36:07 2020
Timers Off: Mon Oct  5 17:36:10 2020

Wall Time:        2.74 seconds

                                                       Time (seconds)
Module                                       User      System        Wall        Calls

--------------------------------------------------------------------------------------

**************************************************************************************

Host: adabbott

Timers On : Mon Oct  5 17:36:20 2020
Timers Off: Mon Oct  5 17:36:23 2020

Wall Time:        3.21 seconds

                                                       Time (seconds)
Module                                       User      System        Wall        Calls

--------------------------------------------------------------------------------------

**************************************************************************************

Host: adabbott

Timers On : Mon Oct  5 20:56:51 2020
Timers Off: Mon Oct  5 20:56:52 2020

Wall Time:        0.78 seconds

                                                       Time (seconds)
Module                                       User      System        Wall        Calls

--------------------------------------------------------------------------------------

**************************************************************************************

Host: adabbott

Timers On : Mon Oct  5 20:57:59 2020
Timers Off: Mon Oct  5 20:58:00 2020

Wall Time:        1.07 seconds

                                                       Time (seconds)
Module                                       User      System        Wall        Calls

--------------------------------------------------------------------------------------

**************************************************************************************

Host: adabbott

Timers On : Mon Oct  5 20:58:27 2020
Timers Off: Mon Oct  5 20:58:29 2020

Wall Time:        1.43 seconds

                                                       Time (seconds)
Module                                       User      System        Wall        Calls

--------------------------------------------------------------------------------------

**************************************************************************************

Host: adabbott

Timers On : Mon Oct  5 21:11:49 2020
Timers Off: Mon Oct  5 21:11:50 2020

Wall Time:        1.25 seconds

                                                       Time (seconds)
Module                                       User      System        Wall        Calls

--------------------------------------------------------------------------------------

**************************************************************************************

Host: adabbott

Timers On : Mon Oct  5 21:19:52 2020
Timers Off: Mon Oct  5 21:19:53 2020

Wall Time:        1.22 seconds

                                                       Time (seconds)
Module                                       User      System        Wall        Calls

--------------------------------------------------------------------------------------

**************************************************************************************

Host: adabbott

Timers On : Mon Oct  5 21:20:26 2020
Timers Off: Mon Oct  5 21:20:27 2020

Wall Time:        0.66 seconds

                                                       Time (seconds)
Module                                       User      System        Wall        Calls

--------------------------------------------------------------------------------------

**************************************************************************************

Host: adabbott

Timers On : Mon Oct  5 21:21:04 2020
Timers Off: Mon Oct  5 21:21:04 2020

Wall Time:        0.74 seconds

                                                       Time (seconds)
Module                                       User      System        Wall        Calls

--------------------------------------------------------------------------------------

**************************************************************************************

Host: adabbott

Timers On : Mon Oct  5 21:21:29 2020
Timers Off: Mon Oct  5 21:21:30 2020

Wall Time:        0.81 seconds

                                                       Time (seconds)
Module                                       User      System        Wall        Calls

--------------------------------------------------------------------------------------

**************************************************************************************

Host: adabbott

Timers On : Mon Oct  5 21:22:19 2020
Timers Off: Mon Oct  5 21:22:19 2020

Wall Time:        0.75 seconds

                                                       Time (seconds)
Module                                       User      System        Wall        Calls

--------------------------------------------------------------------------------------

**************************************************************************************

Host: adabbott

Timers On : Mon Oct  5 21:52:10 2020
Timers Off: Mon Oct  5 21:52:12 2020

Wall Time:        1.45 seconds

                                                       Time (seconds)
Module                                       User      System        Wall        Calls

--------------------------------------------------------------------------------------

**************************************************************************************

Host: adabbott

Timers On : Mon Oct  5 21:52:24 2020
Timers Off: Mon Oct  5 21:52:26 2020

Wall Time:        1.69 seconds

                                                       Time (seconds)
Module                                       User      System        Wall        Calls

--------------------------------------------------------------------------------------

**************************************************************************************

Host: adabbott

Timers On : Mon Oct  5 22:05:13 2020
Timers Off: Mon Oct  5 22:05:15 2020

Wall Time:        1.67 seconds

                                                       Time (seconds)
Module                                       User      System        Wall        Calls

--------------------------------------------------------------------------------------

**************************************************************************************

Host: adabbott

Timers On : Mon Oct  5 22:05:37 2020
Timers Off: Mon Oct  5 22:05:39 2020

Wall Time:        1.72 seconds

                                                       Time (seconds)
Module                                       User      System        Wall        Calls

--------------------------------------------------------------------------------------

**************************************************************************************

Host: adabbott

Timers On : Mon Oct  5 22:11:51 2020
Timers Off: Mon Oct  5 22:11:53 2020

Wall Time:        1.74 seconds

                                                       Time (seconds)
Module                                       User      System        Wall        Calls

--------------------------------------------------------------------------------------

**************************************************************************************

Host: adabbott

Timers On : Mon Oct  5 22:22:37 2020
Timers Off: Mon Oct  5 22:22:39 2020

Wall Time:        1.74 seconds

                                                       Time (seconds)
Module                                       User      System        Wall        Calls

--------------------------------------------------------------------------------------

**************************************************************************************

Host: adabbott

Timers On : Mon Oct  5 22:28:31 2020
Timers Off: Mon Oct  5 22:28:33 2020

Wall Time:        1.69 seconds

                                                       Time (seconds)
Module                                       User      System        Wall        Calls

--------------------------------------------------------------------------------------

**************************************************************************************

Host: adabbott

Timers On : Mon Oct  5 22:33:58 2020
Timers Off: Mon Oct  5 22:34:00 2020

Wall Time:        2.50 seconds

                                                       Time (seconds)
Module                                       User      System        Wall        Calls

--------------------------------------------------------------------------------------

**************************************************************************************

Host: adabbott

Timers On : Mon Oct  5 22:35:49 2020
Timers Off: Mon Oct  5 22:35:52 2020

Wall Time:        2.61 seconds

                                                       Time (seconds)
Module                                       User      System        Wall        Calls

--------------------------------------------------------------------------------------

**************************************************************************************

Host: adabbott

Timers On : Mon Oct  5 22:39:48 2020
Timers Off: Mon Oct  5 22:39:51 2020

Wall Time:        2.61 seconds

                                                       Time (seconds)
Module                                       User      System        Wall        Calls

--------------------------------------------------------------------------------------

**************************************************************************************

Host: adabbott

Timers On : Wed Oct  7 11:22:39 2020
Timers Off: Wed Oct  7 11:22:40 2020

Wall Time:        0.71 seconds

                                                       Time (seconds)
Module                                       User      System        Wall        Calls

--------------------------------------------------------------------------------------

**************************************************************************************

Host: adabbott

Timers On : Wed Oct  7 11:23:02 2020
Timers Off: Wed Oct  7 11:23:03 2020

Wall Time:        1.51 seconds

                                                       Time (seconds)
Module                                       User      System        Wall        Calls

--------------------------------------------------------------------------------------

**************************************************************************************

Host: adabbott

Timers On : Wed Oct  7 11:23:26 2020
Timers Off: Wed Oct  7 11:23:29 2020

Wall Time:        3.17 seconds

                                                       Time (seconds)
Module                                       User      System        Wall        Calls

--------------------------------------------------------------------------------------

**************************************************************************************

Host: adabbott

Timers On : Wed Oct  7 12:14:37 2020
Timers Off: Wed Oct  7 12:14:38 2020

Wall Time:        0.60 seconds

                                                       Time (seconds)
Module                                       User      System        Wall        Calls

--------------------------------------------------------------------------------------

**************************************************************************************

Host: adabbott

Timers On : Wed Oct  7 12:17:29 2020
Timers Off: Wed Oct  7 12:17:30 2020

Wall Time:        0.61 seconds

                                                       Time (seconds)
Module                                       User      System        Wall        Calls

--------------------------------------------------------------------------------------

**************************************************************************************

Host: adabbott

Timers On : Wed Oct  7 12:17:38 2020
Timers Off: Wed Oct  7 12:17:39 2020

Wall Time:        0.76 seconds

                                                       Time (seconds)
Module                                       User      System        Wall        Calls

--------------------------------------------------------------------------------------

**************************************************************************************

Host: adabbott

Timers On : Wed Oct  7 12:17:50 2020
Timers Off: Wed Oct  7 12:17:51 2020

Wall Time:        0.77 seconds

                                                       Time (seconds)
Module                                       User      System        Wall        Calls

--------------------------------------------------------------------------------------

**************************************************************************************

Host: adabbott

Timers On : Wed Oct  7 12:17:59 2020
Timers Off: Wed Oct  7 12:18:00 2020

Wall Time:        0.98 seconds

                                                       Time (seconds)
Module                                       User      System        Wall        Calls

--------------------------------------------------------------------------------------

**************************************************************************************

Host: adabbott

Timers On : Wed Oct  7 12:18:08 2020
Timers Off: Wed Oct  7 12:18:09 2020

Wall Time:        0.97 seconds

                                                       Time (seconds)
Module                                       User      System        Wall        Calls

--------------------------------------------------------------------------------------

**************************************************************************************

Host: adabbott

Timers On : Wed Oct  7 12:19:16 2020
Timers Off: Wed Oct  7 12:19:17 2020

Wall Time:        0.95 seconds

                                                       Time (seconds)
Module                                       User      System        Wall        Calls

--------------------------------------------------------------------------------------

**************************************************************************************

Host: adabbott

Timers On : Wed Oct  7 12:20:09 2020
Timers Off: Wed Oct  7 12:20:10 2020

Wall Time:        0.88 seconds

                                                       Time (seconds)
Module                                       User      System        Wall        Calls

--------------------------------------------------------------------------------------

**************************************************************************************

Host: adabbott

Timers On : Wed Oct  7 12:20:19 2020
Timers Off: Wed Oct  7 12:20:20 2020

Wall Time:        0.87 seconds

                                                       Time (seconds)
Module                                       User      System        Wall        Calls

--------------------------------------------------------------------------------------

**************************************************************************************

Host: adabbott

Timers On : Wed Oct  7 12:20:47 2020
Timers Off: Wed Oct  7 12:20:48 2020

Wall Time:        0.87 seconds

                                                       Time (seconds)
Module                                       User      System        Wall        Calls

--------------------------------------------------------------------------------------

**************************************************************************************

Host: adabbott

Timers On : Wed Oct  7 12:21:41 2020
Timers Off: Wed Oct  7 12:21:42 2020

Wall Time:        0.90 seconds

                                                       Time (seconds)
Module                                       User      System        Wall        Calls

--------------------------------------------------------------------------------------

**************************************************************************************

Host: adabbott

Timers On : Wed Oct  7 12:22:29 2020
Timers Off: Wed Oct  7 12:22:30 2020

Wall Time:        0.76 seconds

                                                       Time (seconds)
Module                                       User      System        Wall        Calls

--------------------------------------------------------------------------------------

**************************************************************************************

Host: adabbott

Timers On : Wed Oct  7 15:20:22 2020
Timers Off: Wed Oct  7 15:20:23 2020

Wall Time:        0.80 seconds

                                                       Time (seconds)
Module                                       User      System        Wall        Calls

--------------------------------------------------------------------------------------

**************************************************************************************

Host: adabbott

Timers On : Wed Oct  7 15:20:41 2020
Timers Off: Wed Oct  7 15:20:43 2020

Wall Time:        1.64 seconds

                                                       Time (seconds)
Module                                       User      System        Wall        Calls

--------------------------------------------------------------------------------------

**************************************************************************************

Host: adabbott

Timers On : Wed Oct  7 15:47:03 2020
Timers Off: Wed Oct  7 15:47:05 2020

Wall Time:        1.82 seconds

                                                       Time (seconds)
Module                                       User      System        Wall        Calls

--------------------------------------------------------------------------------------

**************************************************************************************

Host: adabbott

Timers On : Wed Oct  7 15:48:18 2020
Timers Off: Wed Oct  7 15:48:37 2020

Wall Time:       18.53 seconds

                                                       Time (seconds)
Module                                       User      System        Wall        Calls

--------------------------------------------------------------------------------------

**************************************************************************************

Host: adabbott

Timers On : Wed Oct  7 15:50:30 2020
Timers Off: Wed Oct  7 15:50:32 2020

Wall Time:        1.82 seconds

                                                       Time (seconds)
Module                                       User      System        Wall        Calls

--------------------------------------------------------------------------------------

**************************************************************************************

Host: adabbott

Timers On : Wed Oct  7 15:53:24 2020
Timers Off: Wed Oct  7 15:53:27 2020

Wall Time:        2.62 seconds

                                                       Time (seconds)
Module                                       User      System        Wall        Calls

--------------------------------------------------------------------------------------

**************************************************************************************

Host: adabbott

Timers On : Wed Oct  7 15:57:09 2020
Timers Off: Wed Oct  7 15:57:28 2020

Wall Time:       18.44 seconds

                                                       Time (seconds)
Module                                       User      System        Wall        Calls

--------------------------------------------------------------------------------------

**************************************************************************************

Host: adabbott

Timers On : Wed Oct  7 15:59:23 2020
Timers Off: Wed Oct  7 15:59:25 2020

Wall Time:        1.82 seconds

                                                       Time (seconds)
Module                                       User      System        Wall        Calls

--------------------------------------------------------------------------------------

**************************************************************************************

Host: adabbott

Timers On : Wed Oct  7 16:13:01 2020
Timers Off: Wed Oct  7 16:13:31 2020

Wall Time:       30.39 seconds

                                                       Time (seconds)
Module                                       User      System        Wall        Calls

--------------------------------------------------------------------------------------

**************************************************************************************

Host: adabbott

Timers On : Wed Oct  7 16:14:32 2020
Timers Off: Wed Oct  7 16:15:31 2020

Wall Time:       59.22 seconds

                                                       Time (seconds)
Module                                       User      System        Wall        Calls

--------------------------------------------------------------------------------------

**************************************************************************************

Host: adabbott

Timers On : Wed Oct  7 16:23:09 2020
Timers Off: Wed Oct  7 16:24:07 2020

Wall Time:       58.60 seconds

                                                       Time (seconds)
Module                                       User      System        Wall        Calls

--------------------------------------------------------------------------------------

**************************************************************************************

Host: adabbott

Timers On : Wed Oct  7 16:31:43 2020
Timers Off: Wed Oct  7 16:31:43 2020

Wall Time:        0.77 seconds

                                                       Time (seconds)
Module                                       User      System        Wall        Calls

--------------------------------------------------------------------------------------

**************************************************************************************

Host: adabbott

Timers On : Wed Oct  7 16:32:25 2020
Timers Off: Wed Oct  7 16:32:26 2020

Wall Time:        0.69 seconds

                                                       Time (seconds)
Module                                       User      System        Wall        Calls

--------------------------------------------------------------------------------------

**************************************************************************************

Host: adabbott

Timers On : Wed Oct  7 16:32:43 2020
Timers Off: Wed Oct  7 16:32:44 2020

Wall Time:        0.73 seconds

                                                       Time (seconds)
Module                                       User      System        Wall        Calls

--------------------------------------------------------------------------------------

**************************************************************************************

Host: adabbott

Timers On : Wed Oct  7 16:32:52 2020
Timers Off: Wed Oct  7 16:32:53 2020

Wall Time:        0.83 seconds

                                                       Time (seconds)
Module                                       User      System        Wall        Calls

--------------------------------------------------------------------------------------

**************************************************************************************

Host: adabbott

Timers On : Wed Oct  7 16:33:49 2020
Timers Off: Wed Oct  7 16:33:50 2020

Wall Time:        0.70 seconds

                                                       Time (seconds)
Module                                       User      System        Wall        Calls

--------------------------------------------------------------------------------------

**************************************************************************************

Host: adabbott

Timers On : Wed Oct  7 16:34:03 2020
Timers Off: Wed Oct  7 16:34:03 2020

Wall Time:        0.76 seconds

                                                       Time (seconds)
Module                                       User      System        Wall        Calls

--------------------------------------------------------------------------------------

**************************************************************************************

Host: adabbott

Timers On : Wed Oct  7 16:34:16 2020
Timers Off: Wed Oct  7 16:34:17 2020

Wall Time:        0.73 seconds

                                                       Time (seconds)
Module                                       User      System        Wall        Calls

--------------------------------------------------------------------------------------

**************************************************************************************

Host: adabbott

Timers On : Wed Oct  7 16:34:33 2020
Timers Off: Wed Oct  7 16:34:34 2020

Wall Time:        0.80 seconds

                                                       Time (seconds)
Module                                       User      System        Wall        Calls

--------------------------------------------------------------------------------------

**************************************************************************************

Host: adabbott

[...]

                                                       Time (seconds)
Module                                       User      System        Wall        Calls

--------------------------------------------------------------------------------------

**************************************************************************************

Host: adabbott

Timers On : Wed Oct  7 16:45:43 2020
Timers Off: Wed Oct  7 16:45:44 2020

Wall Time:        0.83 seconds

                                                       Time (seconds)
Module                                       User      System        Wall        Calls

--------------------------------------------------------------------------------------

**************************************************************************************

Host: adabbott

Timers On : Wed Oct  7 16:46:35 2020
Timers Off: Wed Oct  7 16:46:36 2020

Wall Time:        0.82 seconds

                                                       Time (seconds)
Module                                       User      System        Wall        Calls

--------------------------------------------------------------------------------------

**************************************************************************************

Host: adabbott

Timers On : Wed Oct  7 16:46:51 2020
Timers Off: Wed Oct  7 16:46:52 2020

Wall Time:        0.81 seconds

                                                       Time (seconds)
Module                                       User      System        Wall        Calls

--------------------------------------------------------------------------------------

**************************************************************************************

Host: adabbott

Timers On : Wed Oct  7 16:47:29 2020
Timers Off: Wed Oct  7 16:47:30 2020

Wall Time:        0.82 seconds

                                                       Time (seconds)
Module                                       User      System        Wall        Calls

--------------------------------------------------------------------------------------

**************************************************************************************

Host: adabbott

Timers On : Wed Oct  7 16:47:46 2020
Timers Off: Wed Oct  7 16:47:47 2020

Wall Time:        0.82 seconds

                                                       Time (seconds)
Module                                       User      System        Wall        Calls

--------------------------------------------------------------------------------------

**************************************************************************************

Host: adabbott

Timers On : Wed Oct  7 16:48:02 2020
Timers Off: Wed Oct  7 16:48:03 2020

Wall Time:        0.83 seconds

                                                       Time (seconds)
Module                                       User      System        Wall        Calls

--------------------------------------------------------------------------------------

**************************************************************************************

Host: adabbott

Timers On : Wed Oct  7 16:48:11 2020
Timers Off: Wed Oct  7 16:48:12 2020

Wall Time:        0.81 seconds

                                                       Time (seconds)
Module                                       User      System        Wall        Calls

--------------------------------------------------------------------------------------

**************************************************************************************

Host: adabbott

Timers On : Wed Oct  7 16:48:25 2020
Timers Off: Wed Oct  7 16:48:26 2020

Wall Time:        0.81 seconds

                                                       Time (seconds)
Module                                       User      System        Wall        Calls

--------------------------------------------------------------------------------------

**************************************************************************************

Host: adabbott

Timers On : Wed Oct  7 16:48:56 2020
Timers Off: Wed Oct  7 16:48:57 2020

Wall Time:        0.82 seconds

                                                       Time (seconds)
Module                                       User      System        Wall        Calls

--------------------------------------------------------------------------------------

**************************************************************************************

Host: adabbott

Timers On : Wed Oct  7 16:49:32 2020
Timers Off: Wed Oct  7 16:49:32 2020

Wall Time:        0.81 seconds

                                                       Time (seconds)
Module                                       User      System        Wall        Calls

--------------------------------------------------------------------------------------

**************************************************************************************

Host: adabbott

Timers On : Wed Oct  7 16:58:45 2020
Timers Off: Wed Oct  7 16:58:46 2020

Wall Time:        0.80 seconds

                                                       Time (seconds)
Module                                       User      System        Wall        Calls

--------------------------------------------------------------------------------------

**************************************************************************************

Host: adabbott

Timers On : Wed Oct  7 16:59:22 2020
Timers Off: Wed Oct  7 16:59:23 2020

Wall Time:        0.84 seconds

                                                       Time (seconds)
Module                                       User      System        Wall        Calls

--------------------------------------------------------------------------------------

**************************************************************************************

Host: adabbott

Timers On : Wed Oct  7 17:00:42 2020
Timers Off: Wed Oct  7 17:00:43 2020

Wall Time:        0.80 seconds

                                                       Time (seconds)
Module                                       User      System        Wall        Calls

--------------------------------------------------------------------------------------

**************************************************************************************

Host: adabbott

Timers On : Wed Oct  7 17:00:57 2020
Timers Off: Wed Oct  7 17:00:57 2020

Wall Time:        0.79 seconds

                                                       Time (seconds)
Module                                       User      System        Wall        Calls

--------------------------------------------------------------------------------------

**************************************************************************************

Host: adabbott

Timers On : Wed Oct  7 17:01:09 2020
Timers Off: Wed Oct  7 17:01:10 2020

Wall Time:        0.80 seconds

                                                       Time (seconds)
Module                                       User      System        Wall        Calls

--------------------------------------------------------------------------------------

**************************************************************************************

Host: adabbott

Timers On : Wed Oct  7 17:01:18 2020
Timers Off: Wed Oct  7 17:01:19 2020

Wall Time:        0.82 seconds

                                                       Time (seconds)
Module                                       User      System        Wall        Calls

--------------------------------------------------------------------------------------

**************************************************************************************

Host: adabbott

Timers On : Wed Oct  7 17:01:27 2020
Timers Off: Wed Oct  7 17:01:27 2020

Wall Time:        0.80 seconds

                                                       Time (seconds)
Module                                       User      System        Wall        Calls

--------------------------------------------------------------------------------------

**************************************************************************************

Host: adabbott

Timers On : Wed Oct  7 17:01:35 2020
Timers Off: Wed Oct  7 17:01:36 2020

Wall Time:        0.81 seconds

                                                       Time (seconds)
Module                                       User      System        Wall        Calls

--------------------------------------------------------------------------------------

**************************************************************************************

Host: adabbott

Timers On : Wed Oct  7 17:02:11 2020
Timers Off: Wed Oct  7 17:02:12 2020

Wall Time:        0.83 seconds

                                                       Time (seconds)
Module                                       User      System        Wall        Calls

--------------------------------------------------------------------------------------

**************************************************************************************

Host: adabbott

Timers On : Wed Oct  7 17:02:41 2020
Timers Off: Wed Oct  7 17:02:41 2020

Wall Time:        0.82 seconds

                                                       Time (seconds)
Module                                       User      System        Wall        Calls

--------------------------------------------------------------------------------------

**************************************************************************************

Host: adabbott

Timers On : Wed Oct  7 17:03:10 2020
Timers Off: Wed Oct  7 17:03:11 2020

Wall Time:        0.80 seconds

                                                       Time (seconds)
Module                                       User      System        Wall        Calls

--------------------------------------------------------------------------------------

**************************************************************************************

Host: adabbott

Timers On : Wed Oct  7 17:03:27 2020
Timers Off: Wed Oct  7 17:03:27 2020

Wall Time:        0.80 seconds

                                                       Time (seconds)
Module                                       User      System        Wall        Calls

--------------------------------------------------------------------------------------

**************************************************************************************

Host: adabbott

Timers On : Wed Oct  7 17:03:38 2020
Timers Off: Wed Oct  7 17:03:39 2020

Wall Time:        0.82 seconds

                                                       Time (seconds)
Module                                       User      System        Wall        Calls

--------------------------------------------------------------------------------------

**************************************************************************************

Host: adabbott

Timers On : Wed Oct  7 17:05:37 2020
Timers Off: Wed Oct  7 17:05:38 2020

Wall Time:        0.81 seconds

                                                       Time (seconds)
Module                                       User      System        Wall        Calls

--------------------------------------------------------------------------------------

**************************************************************************************

Host: adabbott

Timers On : Wed Oct  7 17:06:59 2020
Timers Off: Wed Oct  7 17:06:59 2020

Wall Time:        0.83 seconds

                                                       Time (seconds)
Module                                       User      System        Wall        Calls

--------------------------------------------------------------------------------------

**************************************************************************************

Host: adabbott

Timers On : Wed Oct  7 17:07:11 2020
Timers Off: Wed Oct  7 17:07:12 2020

Wall Time:        0.85 seconds

                                                       Time (seconds)
Module                                       User      System        Wall        Calls

--------------------------------------------------------------------------------------

**************************************************************************************

Host: adabbott

Timers On : Wed Oct  7 17:08:07 2020
Timers Off: Wed Oct  7 17:08:07 2020

Wall Time:        0.82 seconds

                                                       Time (seconds)
Module                                       User      System        Wall        Calls

--------------------------------------------------------------------------------------

**************************************************************************************

Host: adabbott

Timers On : Wed Oct  7 17:08:28 2020
Timers Off: Wed Oct  7 17:08:28 2020

Wall Time:        0.82 seconds

                                                       Time (seconds)
Module                                       User      System        Wall        Calls

--------------------------------------------------------------------------------------

**************************************************************************************

Host: adabbott

Timers On : Wed Oct  7 17:13:22 2020
Timers Off: Wed Oct  7 17:13:23 2020

Wall Time:        0.73 seconds

                                                       Time (seconds)
Module                                       User      System        Wall        Calls

--------------------------------------------------------------------------------------

**************************************************************************************

Host: adabbott

Timers On : Wed Oct  7 17:15:02 2020
Timers Off: Wed Oct  7 17:15:03 2020

Wall Time:        0.74 seconds

                                                       Time (seconds)
Module                                       User      System        Wall        Calls

--------------------------------------------------------------------------------------

**************************************************************************************

Host: adabbott

Timers On : Wed Oct  7 17:15:26 2020
Timers Off: Wed Oct  7 17:15:27 2020

Wall Time:        0.84 seconds

                                                       Time (seconds)
Module                                       User      System        Wall        Calls

--------------------------------------------------------------------------------------

**************************************************************************************

Host: adabbott

Timers On : Wed Oct  7 17:16:06 2020
Timers Off: Wed Oct  7 17:16:07 2020

Wall Time:        0.82 seconds

                                                       Time (seconds)
Module                                       User      System        Wall        Calls

--------------------------------------------------------------------------------------

**************************************************************************************

Host: adabbott

Timers On : Wed Oct  7 17:17:27 2020
Timers Off: Wed Oct  7 17:17:27 2020

Wall Time:        0.80 seconds

                                                       Time (seconds)
Module                                       User      System        Wall        Calls

--------------------------------------------------------------------------------------

**************************************************************************************

Host: adabbott

Timers On : Wed Oct  7 17:17:54 2020
Timers Off: Wed Oct  7 17:17:54 2020

Wall Time:        0.80 seconds

                                                       Time (seconds)
Module                                       User      System        Wall        Calls

--------------------------------------------------------------------------------------

**************************************************************************************

Host: adabbott

Timers On : Wed Oct  7 17:18:03 2020
Timers Off: Wed Oct  7 17:18:04 2020

Wall Time:        0.78 seconds

                                                       Time (seconds)
Module                                       User      System        Wall        Calls

--------------------------------------------------------------------------------------

**************************************************************************************

Host: adabbott

Timers On : Wed Oct  7 17:18:15 2020
Timers Off: Wed Oct  7 17:18:16 2020

Wall Time:        0.80 seconds

                                                       Time (seconds)
Module                                       User      System        Wall        Calls

--------------------------------------------------------------------------------------

**************************************************************************************

Host: adabbott

Timers On : Wed Oct  7 17:20:05 2020
Timers Off: Wed Oct  7 17:20:06 2020

Wall Time:        0.79 seconds

                                                       Time (seconds)
Module                                       User      System        Wall        Calls

--------------------------------------------------------------------------------------

**************************************************************************************

Host: adabbott

Timers On : Wed Oct  7 17:20:46 2020
Timers Off: Wed Oct  7 17:20:47 2020

Wall Time:        0.81 seconds

                                                       Time (seconds)
Module                                       User      System        Wall        Calls

--------------------------------------------------------------------------------------

**************************************************************************************

Host: adabbott

Timers On : Wed Oct  7 17:21:27 2020
Timers Off: Wed Oct  7 17:21:28 2020

Wall Time:        0.78 seconds

                                                       Time (seconds)
Module                                       User      System        Wall        Calls

--------------------------------------------------------------------------------------

**************************************************************************************

Host: adabbott

Timers On : Wed Oct  7 17:23:18 2020
Timers Off: Wed Oct  7 17:23:19 2020

Wall Time:        0.78 seconds

                                                       Time (seconds)
Module                                       User      System        Wall        Calls

--------------------------------------------------------------------------------------

**************************************************************************************

Host: adabbott

Timers On : Wed Oct  7 17:23:28 2020
Timers Off: Wed Oct  7 17:23:28 2020

Wall Time:        0.83 seconds

                                                       Time (seconds)
Module                                       User      System        Wall        Calls

--------------------------------------------------------------------------------------

**************************************************************************************

Host: adabbott

Timers On : Wed Oct  7 17:23:40 2020
Timers Off: Wed Oct  7 17:24:11 2020

Wall Time:       30.50 seconds

                                                       Time (seconds)
Module                                       User      System        Wall        Calls

--------------------------------------------------------------------------------------

**************************************************************************************

Host: adabbott

Timers On : Wed Oct  7 17:25:39 2020
Timers Off: Wed Oct  7 17:25:39 2020

Wall Time:        0.80 seconds

                                                       Time (seconds)
Module                                       User      System        Wall        Calls

--------------------------------------------------------------------------------------

**************************************************************************************
