
Host: n093

Timers On : Thu Dec 17 19:23:51 2020
Timers Off: Thu Dec 17 19:25:33 2020

Wall Time:      102.49 seconds

                                                       Time (seconds)
Module                                       User      System        Wall        Calls

--------------------------------------------------------------------------------------

**************************************************************************************

Host: n093

Timers On : Thu Dec 17 19:25:34 2020
Timers Off: Thu Dec 17 19:30:15 2020

Wall Time:      281.51 seconds

                                                       Time (seconds)
Module                                       User      System        Wall        Calls

--------------------------------------------------------------------------------------

**************************************************************************************

Host: n093

Timers On : Thu Dec 17 19:30:15 2020
Timers Off: Thu Dec 17 19:42:09 2020

Wall Time:      713.47 seconds

                                                       Time (seconds)
Module                                       User      System        Wall        Calls

--------------------------------------------------------------------------------------

**************************************************************************************

Host: n093

Timers On : Thu Dec 17 19:42:09 2020
Timers Off: Thu Dec 17 20:14:07 2020

Wall Time:     1918.29 seconds

                                                       Time (seconds)
Module                                       User      System        Wall        Calls

--------------------------------------------------------------------------------------

**************************************************************************************

Host: n093

Timers On : Thu Dec 17 20:14:08 2020
Timers Off: Thu Dec 17 21:39:01 2020

Wall Time:     5092.99 seconds

                                                       Time (seconds)
Module                                       User      System        Wall        Calls

--------------------------------------------------------------------------------------

**************************************************************************************

Host: n093

Timers On : Thu Dec 17 21:39:01 2020
Timers Off: Thu Dec 17 21:39:04 2020

Wall Time:        2.39 seconds

                                                       Time (seconds)
Module                                       User      System        Wall        Calls

--------------------------------------------------------------------------------------

**************************************************************************************

Host: n093

Timers On : Thu Dec 17 21:39:04 2020
Timers Off: Thu Dec 17 21:40:49 2020

Wall Time:      105.64 seconds

                                                       Time (seconds)
Module                                       User      System        Wall        Calls

--------------------------------------------------------------------------------------

**************************************************************************************

Host: n093

Timers On : Thu Dec 17 21:40:50 2020
Timers Off: Thu Dec 17 21:45:34 2020

Wall Time:      284.66 seconds

                                                       Time (seconds)
Module                                       User      System        Wall        Calls

--------------------------------------------------------------------------------------

**************************************************************************************

Host: n093

Timers On : Thu Dec 17 21:45:35 2020
Timers Off: Thu Dec 17 21:57:27 2020

Wall Time:      711.85 seconds

                                                       Time (seconds)
Module                                       User      System        Wall        Calls

--------------------------------------------------------------------------------------

**************************************************************************************

Host: n093

Timers On : Thu Dec 17 21:57:27 2020
Timers Off: Thu Dec 17 22:30:28 2020

Wall Time:     1981.02 seconds

                                                       Time (seconds)
Module                                       User      System        Wall        Calls

--------------------------------------------------------------------------------------

**************************************************************************************

Host: n093

Timers On : Thu Dec 17 22:30:28 2020
Timers Off: Thu Dec 17 23:57:56 2020

Wall Time:     5247.83 seconds

                                                       Time (seconds)
Module                                       User      System        Wall        Calls

--------------------------------------------------------------------------------------

**************************************************************************************

Host: n093

Timers On : Thu Dec 17 23:57:57 2020
Timers Off: Thu Dec 17 23:57:59 2020

Wall Time:        2.35 seconds

                                                       Time (seconds)
Module                                       User      System        Wall        Calls

--------------------------------------------------------------------------------------

**************************************************************************************

Host: n093

Timers On : Thu Dec 17 23:57:59 2020
Timers Off: Fri Dec 18 00:01:11 2020

Wall Time:      192.05 seconds

                                                       Time (seconds)
Module                                       User      System        Wall        Calls

--------------------------------------------------------------------------------------

**************************************************************************************

Host: n093

Timers On : Fri Dec 18 00:01:12 2020
Timers Off: Fri Dec 18 00:09:29 2020

Wall Time:      497.51 seconds

                                                       Time (seconds)
Module                                       User      System        Wall        Calls

--------------------------------------------------------------------------------------

**************************************************************************************

Host: n093

Timers On : Fri Dec 18 00:09:30 2020
Timers Off: Fri Dec 18 00:31:05 2020

Wall Time:     1294.91 seconds

                                                       Time (seconds)
Module                                       User      System        Wall        Calls

--------------------------------------------------------------------------------------

**************************************************************************************

Host: n093

Timers On : Fri Dec 18 00:31:06 2020
Timers Off: Fri Dec 18 01:26:54 2020

Wall Time:     3348.42 seconds

                                                       Time (seconds)
Module                                       User      System        Wall        Calls

--------------------------------------------------------------------------------------

**************************************************************************************

Host: n093

Timers On : Fri Dec 18 01:26:56 2020
Timers Off: Fri Dec 18 03:59:11 2020

Wall Time:     9135.54 seconds

                                                       Time (seconds)
Module                                       User      System        Wall        Calls

--------------------------------------------------------------------------------------

**************************************************************************************

Host: n093

Timers On : Fri Dec 18 03:59:14 2020
Timers Off: Fri Dec 18 03:59:17 2020

Wall Time:        2.36 seconds

                                                       Time (seconds)
Module                                       User      System        Wall        Calls

--------------------------------------------------------------------------------------

**************************************************************************************

Host: n093

Timers On : Thu Dec 17 13:55:16 2020
Timers Off: Fri Dec 18 05:06:16 2020

Wall Time:    54659.71 seconds

                                                       Time (seconds)
Module                                       User      System        Wall        Calls

--------------------------------------------------------------------------------------

**************************************************************************************

Host: n093

Timers On : Fri Dec 18 09:51:39 2020
Timers Off: Fri Dec 18 09:54:03 2020

Wall Time:      143.51 seconds

                                                       Time (seconds)
Module                                       User      System        Wall        Calls

--------------------------------------------------------------------------------------

**************************************************************************************

Host: n093

Timers On : Fri Dec 18 12:43:20 2020
Timers Off: Fri Dec 18 12:45:06 2020

Wall Time:      105.24 seconds

                                                       Time (seconds)
Module                                       User      System        Wall        Calls

--------------------------------------------------------------------------------------

**************************************************************************************

Host: n093

Timers On : Fri Dec 18 09:57:30 2020
Timers Off: Fri Dec 18 14:01:16 2020

Wall Time:    14625.96 seconds

                                                       Time (seconds)
Module                                       User      System        Wall        Calls

--------------------------------------------------------------------------------------

**************************************************************************************

Host: n093

Timers On : Fri Dec 18 15:48:00 2020
Timers Off: Fri Dec 18 15:49:27 2020

Wall Time:       86.71 seconds

                                                       Time (seconds)
Module                                       User      System        Wall        Calls

--------------------------------------------------------------------------------------

**************************************************************************************

Host: n093

Timers On : Fri Dec 18 18:37:07 2020
Timers Off: Fri Dec 18 18:38:28 2020

Wall Time:       81.40 seconds

                                                       Time (seconds)
Module                                       User      System        Wall        Calls

--------------------------------------------------------------------------------------

**************************************************************************************

Host: n093

Timers On : Fri Dec 18 18:38:28 2020
Timers Off: Fri Dec 18 18:42:09 2020

Wall Time:      220.79 seconds

                                                       Time (seconds)
Module                                       User      System        Wall        Calls

--------------------------------------------------------------------------------------

**************************************************************************************

Host: n093

Timers On : Fri Dec 18 18:42:10 2020
Timers Off: Fri Dec 18 18:51:12 2020

Wall Time:      542.40 seconds

                                                       Time (seconds)
Module                                       User      System        Wall        Calls

--------------------------------------------------------------------------------------

**************************************************************************************

Host: n093

Timers On : Fri Dec 18 18:51:12 2020
Timers Off: Fri Dec 18 19:15:59 2020

Wall Time:     1486.73 seconds

                                                       Time (seconds)
Module                                       User      System        Wall        Calls

--------------------------------------------------------------------------------------

**************************************************************************************

Host: n093

Timers On : Fri Dec 18 19:16:03 2020
Timers Off: Fri Dec 18 20:19:15 2020

Wall Time:     3792.07 seconds

                                                       Time (seconds)
Module                                       User      System        Wall        Calls

--------------------------------------------------------------------------------------

**************************************************************************************

Host: n093

Timers On : Fri Dec 18 20:19:15 2020
Timers Off: Fri Dec 18 23:29:01 2020

Wall Time:    11385.70 seconds

                                                       Time (seconds)
Module                                       User      System        Wall        Calls

--------------------------------------------------------------------------------------

**************************************************************************************

Host: n093

Timers On : Fri Dec 18 23:29:02 2020
Timers Off: Fri Dec 18 23:30:27 2020

Wall Time:       85.04 seconds

                                                       Time (seconds)
Module                                       User      System        Wall        Calls

--------------------------------------------------------------------------------------

**************************************************************************************

Host: n093

Timers On : Fri Dec 18 23:30:27 2020
Timers Off: Fri Dec 18 23:34:16 2020

Wall Time:      228.97 seconds

                                                       Time (seconds)
Module                                       User      System        Wall        Calls

--------------------------------------------------------------------------------------

**************************************************************************************

Host: n093

Timers On : Fri Dec 18 23:34:16 2020
Timers Off: Fri Dec 18 23:44:05 2020

Wall Time:      588.85 seconds

                                                       Time (seconds)
Module                                       User      System        Wall        Calls

--------------------------------------------------------------------------------------

**************************************************************************************

Host: n093

Timers On : Fri Dec 18 23:44:05 2020
Timers Off: Sat Dec 19 00:09:33 2020

Wall Time:     1527.42 seconds

                                                       Time (seconds)
Module                                       User      System        Wall        Calls

--------------------------------------------------------------------------------------

**************************************************************************************

Host: n093

Timers On : Sat Dec 19 00:09:33 2020
Timers Off: Sat Dec 19 01:19:09 2020

Wall Time:     4176.01 seconds

                                                       Time (seconds)
Module                                       User      System        Wall        Calls

--------------------------------------------------------------------------------------

**************************************************************************************

Host: n093

Timers On : Sat Dec 19 01:19:10 2020
Timers Off: Sat Dec 19 04:27:09 2020

Wall Time:    11279.38 seconds

                                                       Time (seconds)
Module                                       User      System        Wall        Calls

--------------------------------------------------------------------------------------

**************************************************************************************

Host: n093

Timers On : Sat Dec 19 04:27:10 2020
Timers Off: Sat Dec 19 04:30:05 2020

Wall Time:      175.01 seconds

                                                       Time (seconds)
Module                                       User      System        Wall        Calls

--------------------------------------------------------------------------------------

**************************************************************************************

Host: n093

Timers On : Sat Dec 19 04:30:06 2020
Timers Off: Sat Dec 19 04:37:17 2020

Wall Time:      431.88 seconds

                                                       Time (seconds)
Module                                       User      System        Wall        Calls

--------------------------------------------------------------------------------------

**************************************************************************************

Host: n093

Timers On : Sat Dec 19 04:37:18 2020
Timers Off: Sat Dec 19 04:56:09 2020

Wall Time:     1131.06 seconds

                                                       Time (seconds)
Module                                       User      System        Wall        Calls

--------------------------------------------------------------------------------------

**************************************************************************************

Host: n093

Timers On : Sat Dec 19 04:56:10 2020
Timers Off: Sat Dec 19 05:44:50 2020

Wall Time:     2920.45 seconds

                                                       Time (seconds)
Module                                       User      System        Wall        Calls

--------------------------------------------------------------------------------------

**************************************************************************************

Host: n093

Timers On : Sat Dec 19 05:44:52 2020
Timers Off: Sat Dec 19 07:57:57 2020

Wall Time:     7985.43 seconds

                                                       Time (seconds)
Module                                       User      System        Wall        Calls

--------------------------------------------------------------------------------------

**************************************************************************************

Host: n093

Timers On : Sat Dec 19 07:58:01 2020
Timers Off: Sat Dec 19 14:08:22 2020

Wall Time:    22220.52 seconds

                                                       Time (seconds)
Module                                       User      System        Wall        Calls

--------------------------------------------------------------------------------------

**************************************************************************************

Host: n093

Timers On : Wed Dec 23 01:27:59 2020
Timers Off: Wed Dec 23 01:29:23 2020

Wall Time:       83.32 seconds

                                                       Time (seconds)
Module                                       User      System        Wall        Calls

--------------------------------------------------------------------------------------

**************************************************************************************

Host: n093

Timers On : Wed Dec 23 01:29:23 2020
Timers Off: Wed Dec 23 01:33:05 2020

Wall Time:      222.11 seconds

                                                       Time (seconds)
Module                                       User      System        Wall        Calls

--------------------------------------------------------------------------------------

**************************************************************************************

Host: n093

Timers On : Wed Dec 23 01:33:05 2020
Timers Off: Wed Dec 23 01:42:54 2020

Wall Time:      588.78 seconds

                                                       Time (seconds)
Module                                       User      System        Wall        Calls

--------------------------------------------------------------------------------------

**************************************************************************************

Host: n093

Timers On : Wed Dec 23 01:42:54 2020
Timers Off: Wed Dec 23 02:08:06 2020

Wall Time:     1511.47 seconds

                                                       Time (seconds)
Module                                       User      System        Wall        Calls

--------------------------------------------------------------------------------------

**************************************************************************************

Host: n093

Timers On : Wed Dec 23 02:08:06 2020
Timers Off: Wed Dec 23 03:15:05 2020

Wall Time:     4019.00 seconds

                                                       Time (seconds)
Module                                       User      System        Wall        Calls

--------------------------------------------------------------------------------------

**************************************************************************************

Host: n093

Timers On : Wed Dec 23 03:15:06 2020
Timers Off: Wed Dec 23 06:17:43 2020

Wall Time:    10957.18 seconds

                                                       Time (seconds)
Module                                       User      System        Wall        Calls

--------------------------------------------------------------------------------------

**************************************************************************************

Host: n093

Timers On : Wed Dec 23 06:17:43 2020
Timers Off: Wed Dec 23 06:19:05 2020

Wall Time:       81.84 seconds

                                                       Time (seconds)
Module                                       User      System        Wall        Calls

--------------------------------------------------------------------------------------

**************************************************************************************

Host: n093

Timers On : Wed Dec 23 06:19:05 2020
Timers Off: Wed Dec 23 06:22:45 2020

Wall Time:      219.45 seconds

                                                       Time (seconds)
Module                                       User      System        Wall        Calls

--------------------------------------------------------------------------------------

**************************************************************************************

Host: n093

Timers On : Wed Dec 23 06:22:45 2020
Timers Off: Wed Dec 23 06:32:34 2020

Wall Time:      588.84 seconds

                                                       Time (seconds)
Module                                       User      System        Wall        Calls

--------------------------------------------------------------------------------------

**************************************************************************************

Host: n093

Timers On : Wed Dec 23 06:32:34 2020
Timers Off: Wed Dec 23 06:58:22 2020

Wall Time:     1547.57 seconds

                                                       Time (seconds)
Module                                       User      System        Wall        Calls

--------------------------------------------------------------------------------------

**************************************************************************************

Host: n093

Timers On : Wed Dec 23 06:58:22 2020
Timers Off: Wed Dec 23 08:08:19 2020

Wall Time:     4196.48 seconds

                                                       Time (seconds)
Module                                       User      System        Wall        Calls

--------------------------------------------------------------------------------------

**************************************************************************************

Host: n093

Timers On : Wed Dec 23 08:08:19 2020
Timers Off: Wed Dec 23 11:12:42 2020

Wall Time:    11063.32 seconds

                                                       Time (seconds)
Module                                       User      System        Wall        Calls

--------------------------------------------------------------------------------------

**************************************************************************************

Host: n093

Timers On : Wed Dec 23 11:12:43 2020
Timers Off: Wed Dec 23 11:15:36 2020

Wall Time:      172.48 seconds

                                                       Time (seconds)
Module                                       User      System        Wall        Calls

--------------------------------------------------------------------------------------

**************************************************************************************

Host: n093

Timers On : Wed Dec 23 11:15:36 2020
Timers Off: Wed Dec 23 11:23:02 2020

Wall Time:      445.37 seconds

                                                       Time (seconds)
Module                                       User      System        Wall        Calls

--------------------------------------------------------------------------------------

**************************************************************************************

Host: n093

Timers On : Wed Dec 23 11:23:02 2020
Timers Off: Wed Dec 23 11:41:56 2020

Wall Time:     1133.94 seconds

                                                       Time (seconds)
Module                                       User      System        Wall        Calls

--------------------------------------------------------------------------------------

**************************************************************************************

Host: n093

Timers On : Wed Dec 23 11:41:57 2020
Timers Off: Wed Dec 23 12:30:46 2020

Wall Time:     2929.74 seconds

                                                       Time (seconds)
Module                                       User      System        Wall        Calls

--------------------------------------------------------------------------------------

**************************************************************************************

Host: n093

Timers On : Wed Dec 23 12:30:48 2020
Timers Off: Wed Dec 23 14:43:35 2020

Wall Time:     7967.28 seconds

                                                       Time (seconds)
Module                                       User      System        Wall        Calls

--------------------------------------------------------------------------------------

**************************************************************************************

Host: n093

Timers On : Wed Dec 23 14:43:38 2020
Timers Off: Wed Dec 23 20:58:29 2020

Wall Time:    22491.07 seconds

                                                       Time (seconds)
Module                                       User      System        Wall        Calls

--------------------------------------------------------------------------------------

**************************************************************************************

Host: n093

Timers On : Tue Jan 19 02:34:10 2021
Timers Off: Tue Jan 19 02:35:31 2021

Wall Time:       80.57 seconds

                                                       Time (seconds)
Module                                       User      System        Wall        Calls

--------------------------------------------------------------------------------------

**************************************************************************************

Host: n093

Timers On : Tue Jan 19 02:35:31 2021
Timers Off: Tue Jan 19 02:39:06 2021

Wall Time:      214.66 seconds

                                                       Time (seconds)
Module                                       User      System        Wall        Calls

--------------------------------------------------------------------------------------

**************************************************************************************

Host: n093

Timers On : Tue Jan 19 02:39:06 2021
Timers Off: Tue Jan 19 02:48:33 2021

Wall Time:      566.54 seconds

                                                       Time (seconds)
Module                                       User      System        Wall        Calls

--------------------------------------------------------------------------------------

**************************************************************************************

Host: n093

Timers On : Tue Jan 19 02:48:33 2021
Timers Off: Tue Jan 19 03:13:49 2021

Wall Time:     1515.81 seconds

                                                       Time (seconds)
Module                                       User      System        Wall        Calls

--------------------------------------------------------------------------------------

**************************************************************************************

Host: n093

Timers On : Tue Jan 19 03:13:49 2021
Timers Off: Tue Jan 19 04:19:38 2021

Wall Time:     3948.81 seconds

                                                       Time (seconds)
Module                                       User      System        Wall        Calls

--------------------------------------------------------------------------------------

**************************************************************************************

Host: n093

Timers On : Tue Jan 19 04:19:39 2021
Timers Off: Tue Jan 19 07:24:31 2021

Wall Time:    11092.06 seconds

                                                       Time (seconds)
Module                                       User      System        Wall        Calls

--------------------------------------------------------------------------------------

**************************************************************************************

Host: n093

Timers On : Tue Jan 19 07:24:32 2021
Timers Off: Tue Jan 19 07:25:54 2021

Wall Time:       82.55 seconds

                                                       Time (seconds)
Module                                       User      System        Wall        Calls

--------------------------------------------------------------------------------------

**************************************************************************************

Host: n093

Timers On : Tue Jan 19 07:25:54 2021
Timers Off: Tue Jan 19 07:29:46 2021

Wall Time:      231.23 seconds

                                                       Time (seconds)
Module                                       User      System        Wall        Calls

--------------------------------------------------------------------------------------

**************************************************************************************

Host: n093

Timers On : Tue Jan 19 07:29:46 2021
Timers Off: Tue Jan 19 07:39:35 2021

Wall Time:      589.56 seconds

                                                       Time (seconds)
Module                                       User      System        Wall        Calls

--------------------------------------------------------------------------------------

**************************************************************************************

Host: n093

Timers On : Tue Jan 19 07:39:36 2021
Timers Off: Tue Jan 19 08:05:23 2021

Wall Time:     1547.41 seconds

                                                       Time (seconds)
Module                                       User      System        Wall        Calls

--------------------------------------------------------------------------------------

**************************************************************************************

Host: n093

Timers On : Tue Jan 19 08:05:24 2021
Timers Off: Tue Jan 19 09:12:48 2021

Wall Time:     4044.06 seconds

                                                       Time (seconds)
Module                                       User      System        Wall        Calls

--------------------------------------------------------------------------------------

**************************************************************************************

Host: n093

Timers On : Tue Jan 19 09:12:48 2021
Timers Off: Tue Jan 19 12:19:33 2021

Wall Time:    11205.10 seconds

                                                       Time (seconds)
Module                                       User      System        Wall        Calls

--------------------------------------------------------------------------------------

**************************************************************************************

Host: n093

Timers On : Tue Jan 19 12:19:34 2021
Timers Off: Tue Jan 19 12:22:24 2021

Wall Time:      170.01 seconds

                                                       Time (seconds)
Module                                       User      System        Wall        Calls

--------------------------------------------------------------------------------------

**************************************************************************************

Host: n093

Timers On : Tue Jan 19 12:22:25 2021
Timers Off: Tue Jan 19 12:29:52 2021

Wall Time:      447.04 seconds

                                                       Time (seconds)
Module                                       User      System        Wall        Calls

--------------------------------------------------------------------------------------

**************************************************************************************

Host: n093

Timers On : Tue Jan 19 12:29:52 2021
Timers Off: Tue Jan 19 12:48:15 2021

Wall Time:     1102.72 seconds

                                                       Time (seconds)
Module                                       User      System        Wall        Calls

--------------------------------------------------------------------------------------

**************************************************************************************

Host: n093

Timers On : Tue Jan 19 12:48:16 2021
Timers Off: Tue Jan 19 13:36:37 2021

Wall Time:     2901.56 seconds

                                                       Time (seconds)
Module                                       User      System        Wall        Calls

--------------------------------------------------------------------------------------

**************************************************************************************

Host: n093

Timers On : Tue Jan 19 13:36:39 2021
Timers Off: Tue Jan 19 15:48:05 2021

Wall Time:     7886.01 seconds

                                                       Time (seconds)
Module                                       User      System        Wall        Calls

--------------------------------------------------------------------------------------

**************************************************************************************

Host: n093

Timers On : Tue Jan 19 15:48:08 2021
Timers Off: Tue Jan 19 22:07:13 2021

Wall Time:    22745.05 seconds

                                                       Time (seconds)
Module                                       User      System        Wall        Calls

--------------------------------------------------------------------------------------

**************************************************************************************
