
    -----------------------------------------------------------------------
          Psi4: An Open-Source Ab Initio Electronic Structure Package
                               Psi4 1.3.2 release

                         Git: Rev {HEAD} ecbda83 


    R. M. Parrish, L. A. Burns, D. G. A. Smith, A. C. Simmonett,
    A. E. DePrince III, E. G. Hohenstein, U. Bozkaya, A. Yu. Sokolov,
    R. Di Remigio, R. M. Richard, J. F. Gonthier, A. M. James,
    H. R. McAlexander, A. Kumar, M. Saitow, X. Wang, B. P. Pritchard,
    P. Verma, H. F. Schaefer III, K. Patkowski, R. A. King, E. F. Valeev,
    F. A. Evangelista, J. M. Turney, T. D. Crawford, and C. D. Sherrill,
    J. Chem. Theory Comput. 13(7) pp 3185--3197 (2017).
    (doi: 10.1021/acs.jctc.7b00174)


                         Additional Contributions by
    P. Kraus, H. Kruse, M. H. Lechner, M. C. Schieber, R. A. Shaw,
    A. Alenaizan, R. Galvelis, Z. L. Glick, S. Lehtola, and J. P. Misiewicz

    -----------------------------------------------------------------------


    Psi4 started on: Friday, 19 July 2019 05:55PM

    Process ID: 20073
    Host:       adabbott
    PSIDATADIR: /home/adabbott/anaconda3/envs/peslearn/share/psi4
    Memory:     500.0 MiB
    Threads:    1
    
  ==> Input File <==

--------------------------------------------------------------------------
# density fitted hartree fock 
molecule h2o {
0 1
H 0.0000000000 0.0000000000 0.9166666667
H 0.0000000000 0.8876089033 -0.3828771072
O 0.0000000000 0.0000000000 0.0000000000
}

set scf_type pk
set basis 6-31g
gradient('hf')

--------------------------------------------------------------------------
gradient() will perform analytic gradient computation.

*** tstart() called on adabbott
*** at Fri Jul 19 17:55:24 2019

   => Loading Basis Set <=

    Name: 6-31G
    Role: ORBITAL
    Keyword: BASIS
    atoms 1-2 entry H          line    26 file /home/adabbott/anaconda3/envs/peslearn/share/psi4/basis/6-31g.gbs 
    atoms 3   entry O          line   117 file /home/adabbott/anaconda3/envs/peslearn/share/psi4/basis/6-31g.gbs 


         ---------------------------------------------------------
                                   SCF
               by Justin Turney, Rob Parrish, Andy Simmonett
                          and Daniel G. A. Smith
                              RHF Reference
                        1 Threads,    500 MiB Core
         ---------------------------------------------------------

  ==> Geometry <==

    Molecular point group: cs
    Full point group: Cs

    Geometry (in Angstrom), charge = 0, multiplicity = 1:

       Center              X                  Y                   Z               Mass       
    ------------   -----------------  -----------------  -----------------  -----------------
         H            0.049668318971    -0.886797171243     0.000000000000     1.007825032230
         H           -0.837940584329     0.412746602657     0.000000000000     1.007825032230
         O            0.049668318971     0.029869495457     0.000000000000    15.994914619570

  Running in cs symmetry.

  Rotational constants: A =     35.30448  B =     13.47945  C =      9.75495 [cm^-1]
  Rotational constants: A = 1058401.53688  B = 404103.74940  C = 292446.14255 [MHz]
  Nuclear repulsion =    9.333925571019286

  Charge       = 0
  Multiplicity = 1
  Electrons    = 10
  Nalpha       = 5
  Nbeta        = 5

  ==> Algorithm <==

  SCF Algorithm Type is PK.
  DIIS enabled.
  MOM disabled.
  Fractional occupation disabled.
  Guess Type is SAD.
  Energy threshold   = 1.00e-08
  Density threshold  = 1.00e-08
  Integral threshold = 0.00e+00

  ==> Primary Basis <==

  Basis Set: 6-31G
    Blend: 6-31G
    Number of shells: 9
    Number of basis function: 13
    Number of Cartesian functions: 13
    Spherical Harmonics?: false
    Max angular momentum: 1

  ==> Pre-Iterations <==

   -------------------------------------------------------
    Irrep   Nso     Nmo     Nalpha   Nbeta   Ndocc  Nsocc
   -------------------------------------------------------
     A'        11      11       0       0       0       0
     A"         2       2       0       0       0       0
   -------------------------------------------------------
    Total      13      13       5       5       5       0
   -------------------------------------------------------

  ==> Integral Setup <==

  Using in-core PK algorithm.
   Calculation information:
      Number of atoms:                   3
      Number of AO shells:               9
      Number of primitives:             22
      Number of atomic orbitals:        13
      Number of basis functions:        13

      Integral cutoff                 1.00e-12
      Number of threads:                 1

  Performing in-core PK
  Using 8372 doubles for integral storage.
  We computed 1035 shell quartets total.
  Whereas there are 1035 unique shell quartets.

  ==> DiskJK: Disk-Based J/K Matrices <==

    J tasked:                  Yes
    K tasked:                  Yes
    wK tasked:                  No
    Memory [MiB]:              375
    Schwarz Cutoff:          1E-12

    OpenMP threads:              1

  Minimum eigenvalue in the overlap matrix is 6.7617487489E-02.
  Using Symmetric Orthogonalization.

  SCF Guess: Superposition of Atomic Densities via on-the-fly atomic UHF.

  ==> Iterations <==

                        Total Energy        Delta E     RMS |[F,P]|

   @RHF iter SAD:   -75.53771063291887   -7.55377e+01   0.00000e+00 
   @RHF iter   1:   -75.91350153923086   -3.75791e-01   3.60829e-02 DIIS
   @RHF iter   2:   -75.96564741961808   -5.21459e-02   2.03306e-02 DIIS
   @RHF iter   3:   -75.98343223294913   -1.77848e-02   1.68883e-03 DIIS
   @RHF iter   4:   -75.98373563977285   -3.03407e-04   2.91815e-04 DIIS
   @RHF iter   5:   -75.98374672952511   -1.10898e-05   4.87642e-05 DIIS
   @RHF iter   6:   -75.98374717286991   -4.43345e-07   1.02634e-05 DIIS
   @RHF iter   7:   -75.98374719310280   -2.02329e-08   1.74765e-06 DIIS
   @RHF iter   8:   -75.98374719361163   -5.08834e-10   2.63661e-07 DIIS
   @RHF iter   9:   -75.98374719361865   -7.02016e-12   2.71313e-08 DIIS
   @RHF iter  10:   -75.98374719361871   -5.68434e-14   3.33517e-09 DIIS
  Energy and wave function converged.


  ==> Post-Iterations <==

    Orbital Energies [Eh]
    ---------------------

    Doubly Occupied:                                                      

       1Ap   -20.550503     2Ap    -1.355536     3Ap    -0.734065  
       4Ap    -0.545915     1App   -0.497981  

    Virtual:                                                              

       5Ap     0.208649     6Ap     0.305170     7Ap     1.111137  
       2App    1.167785     8Ap     1.168624     9Ap     1.205288  
      10Ap     1.395700    11Ap     1.672962  

    Final Occupation by Irrep:
             Ap   App 
    DOCC [     4,    1 ]

  @RHF Final Energy:   -75.98374719361871

   => Energetics <=

    Nuclear Repulsion Energy =              9.3339255710192859
    One-Electron Energy =                -123.2673449754019543
    Two-Electron Energy =                  37.9496722107639641
    Total Energy =                        -75.9837471936187114

Computation Completed


Properties will be evaluated at   0.000000,   0.000000,   0.000000 [a0]

Properties computed using the SCF density matrix

  Nuclear Dipole Moment: [e a0]
     X:    -0.7387      Y:    -0.4443      Z:     0.0000

  Electronic Dipole Moment: [e a0]
     X:    -0.0791      Y:    -0.0753      Z:     0.0000

  Dipole Moment: [e a0]
     X:    -0.8178      Y:    -0.5196      Z:     0.0000     Total:     0.9689

  Dipole Moment: [D]
     X:    -2.0787      Y:    -1.3207      Z:     0.0000     Total:     2.4628


*** tstop() called on adabbott at Fri Jul 19 17:55:24 2019
Module time:
	user time   =       0.32 seconds =       0.01 minutes
	system time =       0.01 seconds =       0.00 minutes
	total time  =          0 seconds =       0.00 minutes
Total time:
	user time   =       0.32 seconds =       0.01 minutes
	system time =       0.01 seconds =       0.00 minutes
	total time  =          0 seconds =       0.00 minutes

*** tstart() called on adabbott
*** at Fri Jul 19 17:55:24 2019


         ------------------------------------------------------------
                                   SCF GRAD                          
                          Rob Parrish, Justin Turney,                
                       Andy Simmonett, and Alex Sokolov              
         ------------------------------------------------------------

  ==> Geometry <==

    Molecular point group: cs
    Full point group: Cs

    Geometry (in Angstrom), charge = 0, multiplicity = 1:

       Center              X                  Y                   Z               Mass       
    ------------   -----------------  -----------------  -----------------  -----------------
         H            0.049668318971    -0.886797171243     0.000000000000     1.007825032230
         H           -0.837940584329     0.412746602657     0.000000000000     1.007825032230
         O            0.049668318971     0.029869495457     0.000000000000    15.994914619570

  Nuclear repulsion =    9.333925571019286

  ==> Basis Set <==

  Basis Set: 6-31G
    Blend: 6-31G
    Number of shells: 9
    Number of basis function: 13
    Number of Cartesian functions: 13
    Spherical Harmonics?: false
    Max angular momentum: 1

  ==> DirectJKGrad: Integral-Direct SCF Gradients <==

    Gradient:                    1
    J tasked:                  Yes
    K tasked:                  Yes
    wK tasked:                  No
    Integrals threads:           1
    Schwarz Cutoff:          0E+00


  -Total Gradient:
     Atom            X                  Y                   Z
    ------   -----------------  -----------------  -----------------
       1        0.002489347017     0.040752764509     0.000000000000
       2       -0.017313805275     0.010039288858     0.000000000000
       3        0.014824458258    -0.050792053367     0.000000000000


*** tstop() called on adabbott at Fri Jul 19 17:55:24 2019
Module time:
	user time   =       0.04 seconds =       0.00 minutes
	system time =       0.00 seconds =       0.00 minutes
	total time  =          0 seconds =       0.00 minutes
Total time:
	user time   =       0.36 seconds =       0.01 minutes
	system time =       0.01 seconds =       0.00 minutes
	total time  =          0 seconds =       0.00 minutes

    Psi4 stopped on: Friday, 19 July 2019 05:55PM
    Psi4 wall time for execution: 0:00:00.38

*** Psi4 exiting successfully. Buy a developer a beer!
