
Host: adabbott

Timers On : Mon Nov  2 09:46:36 2020
Timers Off: Mon Nov  2 09:46:37 2020

Wall Time:        0.73 seconds

                                                       Time (seconds)
Module                                       User      System        Wall        Calls

--------------------------------------------------------------------------------------

**************************************************************************************

Host: adabbott

Timers On : Mon Nov  2 09:47:48 2020
Timers Off: Mon Nov  2 09:47:49 2020

Wall Time:        0.80 seconds

                                                       Time (seconds)
Module                                       User      System        Wall        Calls

--------------------------------------------------------------------------------------

**************************************************************************************

Host: adabbott

Timers On : Mon Nov  2 09:48:10 2020
Timers Off: Mon Nov  2 09:48:47 2020

Wall Time:       37.35 seconds

                                                       Time (seconds)
Module                                       User      System        Wall        Calls

--------------------------------------------------------------------------------------

**************************************************************************************

Host: adabbott

Timers On : Mon Nov  2 09:52:19 2020
Timers Off: Mon Nov  2 09:52:57 2020

Wall Time:       38.08 seconds

                                                       Time (seconds)
Module                                       User      System        Wall        Calls

--------------------------------------------------------------------------------------

**************************************************************************************

Host: adabbott

Timers On : Mon Nov  2 09:53:35 2020
Timers Off: Mon Nov  2 09:54:15 2020

Wall Time:       39.36 seconds

                                                       Time (seconds)
Module                                       User      System        Wall        Calls

--------------------------------------------------------------------------------------

**************************************************************************************

Host: adabbott

Timers On : Mon Nov  2 14:05:44 2020
Timers Off: Mon Nov  2 14:06:22 2020

Wall Time:       38.05 seconds

                                                       Time (seconds)
Module                                       User      System        Wall        Calls

--------------------------------------------------------------------------------------

**************************************************************************************
