
    -----------------------------------------------------------------------
          Psi4: An Open-Source Ab Initio Electronic Structure Package
                               Psi4 1.3.2 release

                         Git: Rev {HEAD} ecbda83 


    R. M. Parrish, L. A. Burns, D. G. A. Smith, A. C. Simmonett,
    A. E. DePrince III, E. G. Hohenstein, U. Bozkaya, A. Yu. Sokolov,
    R. Di Remigio, R. M. Richard, J. F. Gonthier, A. M. James,
    H. R. McAlexander, A. Kumar, M. Saitow, X. Wang, B. P. Pritchard,
    P. Verma, H. F. Schaefer III, K. Patkowski, R. A. King, E. F. Valeev,
    F. A. Evangelista, J. M. Turney, T. D. Crawford, and C. D. Sherrill,
    J. Chem. Theory Comput. 13(7) pp 3185--3197 (2017).
    (doi: 10.1021/acs.jctc.7b00174)


                         Additional Contributions by
    P. Kraus, H. Kruse, M. H. Lechner, M. C. Schieber, R. A. Shaw,
    A. Alenaizan, R. Galvelis, Z. L. Glick, S. Lehtola, and J. P. Misiewicz

    -----------------------------------------------------------------------


    Psi4 started on: Friday, 19 July 2019 05:54PM

    Process ID: 19792
    Host:       adabbott
    PSIDATADIR: /home/adabbott/anaconda3/envs/peslearn/share/psi4
    Memory:     500.0 MiB
    Threads:    1
    
  ==> Input File <==

--------------------------------------------------------------------------
# density fitted hartree fock 
molecule h2o {
0 1
H 0.0000000000 0.0000000000 0.9166666667
H 0.0000000000 0.9519808279 -0.1678599051
O 0.0000000000 0.0000000000 0.0000000000
}

set scf_type pk
set basis 6-31g
gradient('hf')

--------------------------------------------------------------------------
gradient() will perform analytic gradient computation.

*** tstart() called on adabbott
*** at Fri Jul 19 17:54:17 2019

   => Loading Basis Set <=

    Name: 6-31G
    Role: ORBITAL
    Keyword: BASIS
    atoms 1-2 entry H          line    26 file /home/adabbott/anaconda3/envs/peslearn/share/psi4/basis/6-31g.gbs 
    atoms 3   entry O          line   117 file /home/adabbott/anaconda3/envs/peslearn/share/psi4/basis/6-31g.gbs 


         ---------------------------------------------------------
                                   SCF
               by Justin Turney, Rob Parrish, Andy Simmonett
                          and Daniel G. A. Smith
                              RHF Reference
                        1 Threads,    500 MiB Core
         ---------------------------------------------------------

  ==> Geometry <==

    Molecular point group: cs
    Full point group: Cs

    Geometry (in Angstrom), charge = 0, multiplicity = 1:

       Center              X                  Y                   Z               Mass       
    ------------   -----------------  -----------------  -----------------  -----------------
         H            0.053270406864    -0.874765359779     0.000000000000     1.007825032230
         H           -0.898710421036     0.209761212021     0.000000000000     1.007825032230
         O            0.053270406864     0.041901306921     0.000000000000    15.994914619570

  Running in cs symmetry.

  Rotational constants: A =     25.87618  B =     15.98780  C =      9.88208 [cm^-1]
  Rotational constants: A = 775748.31872  B = 479302.16884  C = 296257.28632 [MHz]
  Nuclear repulsion =    9.364372564906745

  Charge       = 0
  Multiplicity = 1
  Electrons    = 10
  Nalpha       = 5
  Nbeta        = 5

  ==> Algorithm <==

  SCF Algorithm Type is PK.
  DIIS enabled.
  MOM disabled.
  Fractional occupation disabled.
  Guess Type is SAD.
  Energy threshold   = 1.00e-08
  Density threshold  = 1.00e-08
  Integral threshold = 0.00e+00

  ==> Primary Basis <==

  Basis Set: 6-31G
    Blend: 6-31G
    Number of shells: 9
    Number of basis function: 13
    Number of Cartesian functions: 13
    Spherical Harmonics?: false
    Max angular momentum: 1

  ==> Pre-Iterations <==

   -------------------------------------------------------
    Irrep   Nso     Nmo     Nalpha   Nbeta   Ndocc  Nsocc
   -------------------------------------------------------
     A'        11      11       0       0       0       0
     A"         2       2       0       0       0       0
   -------------------------------------------------------
    Total      13      13       5       5       5       0
   -------------------------------------------------------

  ==> Integral Setup <==

  Using in-core PK algorithm.
   Calculation information:
      Number of atoms:                   3
      Number of AO shells:               9
      Number of primitives:             22
      Number of atomic orbitals:        13
      Number of basis functions:        13

      Integral cutoff                 1.00e-12
      Number of threads:                 1

  Performing in-core PK
  Using 8372 doubles for integral storage.
  We computed 1035 shell quartets total.
  Whereas there are 1035 unique shell quartets.

  ==> DiskJK: Disk-Based J/K Matrices <==

    J tasked:                  Yes
    K tasked:                  Yes
    wK tasked:                  No
    Memory [MiB]:              375
    Schwarz Cutoff:          1E-12

    OpenMP threads:              1

  Minimum eigenvalue in the overlap matrix is 6.4066927276E-02.
  Using Symmetric Orthogonalization.

  SCF Guess: Superposition of Atomic Densities via on-the-fly atomic UHF.

  ==> Iterations <==

                        Total Energy        Delta E     RMS |[F,P]|

   @RHF iter SAD:   -75.55322165722339   -7.55532e+01   0.00000e+00 
   @RHF iter   1:   -75.90446997881698   -3.51248e-01   3.66402e-02 DIIS
   @RHF iter   2:   -75.96064249891720   -5.61725e-02   2.09172e-02 DIIS
   @RHF iter   3:   -75.97940740149325   -1.87649e-02   1.70508e-03 DIIS
   @RHF iter   4:   -75.97971050526021   -3.03104e-04   2.97378e-04 DIIS
   @RHF iter   5:   -75.97972025016584   -9.74491e-06   4.26285e-05 DIIS
   @RHF iter   6:   -75.97972051761542   -2.67450e-07   6.26664e-06 DIIS
   @RHF iter   7:   -75.97972052325251   -5.63709e-09   1.17413e-06 DIIS
   @RHF iter   8:   -75.97972052348226   -2.29747e-10   2.64869e-07 DIIS
   @RHF iter   9:   -75.97972052349280   -1.05445e-11   2.85206e-08 DIIS
   @RHF iter  10:   -75.97972052349301   -2.13163e-13   3.33526e-09 DIIS
  Energy and wave function converged.


  ==> Post-Iterations <==

    Orbital Energies [Eh]
    ---------------------

    Doubly Occupied:                                                      

       1Ap   -20.560405     2Ap    -1.370997     3Ap    -0.710664  
       4Ap    -0.571600     1App   -0.504448  

    Virtual:                                                              

       5Ap     0.205193     6Ap     0.303658     7Ap     1.036437  
       2App    1.162783     8Ap     1.206546     9Ap     1.245904  
      10Ap     1.385953    11Ap     1.711571  

    Final Occupation by Irrep:
             Ap   App 
    DOCC [     4,    1 ]

  @RHF Final Energy:   -75.97972052349301

   => Energetics <=

    Nuclear Repulsion Energy =              9.3643725649067449
    One-Electron Energy =                -123.2519556012062907
    Two-Electron Energy =                  37.9078625128065312
    Total Energy =                        -75.9797205234930146

Computation Completed


Properties will be evaluated at   0.000000,   0.000000,   0.000000 [a0]

Properties computed using the SCF density matrix

  Nuclear Dipole Moment: [e a0]
     X:    -0.7923      Y:    -0.6232      Z:     0.0000

  Electronic Dipole Moment: [e a0]
     X:    -0.0250      Y:    -0.0541      Z:     0.0000

  Dipole Moment: [e a0]
     X:    -0.8173      Y:    -0.6774      Z:     0.0000     Total:     1.0615

  Dipole Moment: [D]
     X:    -2.0774      Y:    -1.7217      Z:     0.0000     Total:     2.6981


*** tstop() called on adabbott at Fri Jul 19 17:54:18 2019
Module time:
	user time   =       0.32 seconds =       0.01 minutes
	system time =       0.00 seconds =       0.00 minutes
	total time  =          1 seconds =       0.02 minutes
Total time:
	user time   =       0.32 seconds =       0.01 minutes
	system time =       0.00 seconds =       0.00 minutes
	total time  =          1 seconds =       0.02 minutes

*** tstart() called on adabbott
*** at Fri Jul 19 17:54:18 2019


         ------------------------------------------------------------
                                   SCF GRAD                          
                          Rob Parrish, Justin Turney,                
                       Andy Simmonett, and Alex Sokolov              
         ------------------------------------------------------------

  ==> Geometry <==

    Molecular point group: cs
    Full point group: Cs

    Geometry (in Angstrom), charge = 0, multiplicity = 1:

       Center              X                  Y                   Z               Mass       
    ------------   -----------------  -----------------  -----------------  -----------------
         H            0.053270406864    -0.874765359779     0.000000000000     1.007825032230
         H           -0.898710421036     0.209761212021     0.000000000000     1.007825032230
         O            0.053270406864     0.041901306921     0.000000000000    15.994914619570

  Nuclear repulsion =    9.364372564906745

  ==> Basis Set <==

  Basis Set: 6-31G
    Blend: 6-31G
    Number of shells: 9
    Number of basis function: 13
    Number of Cartesian functions: 13
    Spherical Harmonics?: false
    Max angular momentum: 1

  ==> DirectJKGrad: Integral-Direct SCF Gradients <==

    Gradient:                    1
    J tasked:                  Yes
    K tasked:                  Yes
    wK tasked:                  No
    Integrals threads:           1
    Schwarz Cutoff:          0E+00


  -Total Gradient:
     Atom            X                  Y                   Z
    ------   -----------------  -----------------  -----------------
       1       -0.023443511067     0.049974338483     0.000000000000
       2       -0.013359013141    -0.020218308114     0.000000000000
       3        0.036802524209    -0.029756030368     0.000000000000


*** tstop() called on adabbott at Fri Jul 19 17:54:18 2019
Module time:
	user time   =       0.04 seconds =       0.00 minutes
	system time =       0.00 seconds =       0.00 minutes
	total time  =          0 seconds =       0.00 minutes
Total time:
	user time   =       0.36 seconds =       0.01 minutes
	system time =       0.00 seconds =       0.00 minutes
	total time  =          1 seconds =       0.02 minutes

    Psi4 stopped on: Friday, 19 July 2019 05:54PM
    Psi4 wall time for execution: 0:00:00.38

*** Psi4 exiting successfully. Buy a developer a beer!
