
Host: adabbott

Timers On : Wed Feb 17 13:23:04 2021
Timers Off: Wed Feb 17 13:23:05 2021

Wall Time:        1.24 seconds

                                                       Time (seconds)
Module                                       User      System        Wall        Calls

--------------------------------------------------------------------------------------

**************************************************************************************

Host: adabbott

Timers On : Wed Feb 17 13:23:57 2021
Timers Off: Wed Feb 17 13:23:58 2021

Wall Time:        1.21 seconds

                                                       Time (seconds)
Module                                       User      System        Wall        Calls

--------------------------------------------------------------------------------------

**************************************************************************************

Host: adabbott

Timers On : Wed Feb 17 13:24:18 2021
Timers Off: Wed Feb 17 13:24:19 2021

Wall Time:        1.21 seconds

                                                       Time (seconds)
Module                                       User      System        Wall        Calls

--------------------------------------------------------------------------------------

**************************************************************************************

Host: adabbott

Timers On : Wed Feb 17 13:26:32 2021
Timers Off: Wed Feb 17 13:26:39 2021

Wall Time:        7.13 seconds

                                                       Time (seconds)
Module                                       User      System        Wall        Calls

--------------------------------------------------------------------------------------

**************************************************************************************

Host: adabbott

Timers On : Wed Feb 17 13:27:19 2021
Timers Off: Wed Feb 17 13:27:25 2021

Wall Time:        6.57 seconds

                                                       Time (seconds)
Module                                       User      System        Wall        Calls

--------------------------------------------------------------------------------------

**************************************************************************************

Host: adabbott

Timers On : Wed Feb 17 13:28:21 2021
Timers Off: Wed Feb 17 13:28:51 2021

Wall Time:       30.60 seconds

                                                       Time (seconds)
Module                                       User      System        Wall        Calls

--------------------------------------------------------------------------------------

**************************************************************************************

Host: adabbott

Timers On : Wed Feb 17 13:36:54 2021
Timers Off: Wed Feb 17 13:42:51 2021

Wall Time:      356.61 seconds

                                                       Time (seconds)
Module                                       User      System        Wall        Calls

--------------------------------------------------------------------------------------

**************************************************************************************

Host: adabbott

Timers On : Wed Feb 17 13:43:35 2021
Timers Off: Wed Feb 17 13:44:51 2021

Wall Time:       75.98 seconds

                                                       Time (seconds)
Module                                       User      System        Wall        Calls

--------------------------------------------------------------------------------------

**************************************************************************************

Host: adabbott

Timers On : Wed Feb 17 13:50:57 2021
Timers Off: Wed Feb 17 13:52:13 2021

Wall Time:       76.84 seconds

                                                       Time (seconds)
Module                                       User      System        Wall        Calls

--------------------------------------------------------------------------------------

**************************************************************************************

Host: adabbott

Timers On : Wed Feb 17 13:55:56 2021
Timers Off: Wed Feb 17 13:57:07 2021

Wall Time:       70.70 seconds

                                                       Time (seconds)
Module                                       User      System        Wall        Calls

--------------------------------------------------------------------------------------

**************************************************************************************

Host: adabbott

Timers On : Wed Feb 17 16:08:00 2021
Timers Off: Wed Feb 17 16:20:30 2021

Wall Time:      750.39 seconds

                                                       Time (seconds)
Module                                       User      System        Wall        Calls

--------------------------------------------------------------------------------------

**************************************************************************************
