
    -----------------------------------------------------------------------
          Psi4: An Open-Source Ab Initio Electronic Structure Package
                               Psi4 1.3.2 release

                         Git: Rev {HEAD} ecbda83 


    R. M. Parrish, L. A. Burns, D. G. A. Smith, A. C. Simmonett,
    A. E. DePrince III, E. G. Hohenstein, U. Bozkaya, A. Yu. Sokolov,
    R. Di Remigio, R. M. Richard, J. F. Gonthier, A. M. James,
    H. R. McAlexander, A. Kumar, M. Saitow, X. Wang, B. P. Pritchard,
    P. Verma, H. F. Schaefer III, K. Patkowski, R. A. King, E. F. Valeev,
    F. A. Evangelista, J. M. Turney, T. D. Crawford, and C. D. Sherrill,
    J. Chem. Theory Comput. 13(7) pp 3185--3197 (2017).
    (doi: 10.1021/acs.jctc.7b00174)


                         Additional Contributions by
    P. Kraus, H. Kruse, M. H. Lechner, M. C. Schieber, R. A. Shaw,
    A. Alenaizan, R. Galvelis, Z. L. Glick, S. Lehtola, and J. P. Misiewicz

    -----------------------------------------------------------------------


    Psi4 started on: Friday, 19 July 2019 05:35PM

    Process ID: 17438
    Host:       adabbott
    PSIDATADIR: /home/adabbott/anaconda3/envs/peslearn/share/psi4
    Memory:     500.0 MiB
    Threads:    1
    
  ==> Input File <==

--------------------------------------------------------------------------
# density fitted hartree fock 
molecule h2o {
0 1
O
H 1 r1
H 1 r1 2 a1

r1 = 1.0
a1 = 104
}

set scf_type pk
set basis 6-31g
optimize('scf')

--------------------------------------------------------------------------
gradient() will perform analytic gradient computation.

*** tstart() called on adabbott
*** at Fri Jul 19 17:35:08 2019

   => Loading Basis Set <=

    Name: 6-31G
    Role: ORBITAL
    Keyword: BASIS
    atoms 1   entry O          line   117 file /home/adabbott/anaconda3/envs/peslearn/share/psi4/basis/6-31g.gbs 
    atoms 2-3 entry H          line    26 file /home/adabbott/anaconda3/envs/peslearn/share/psi4/basis/6-31g.gbs 


         ---------------------------------------------------------
                                   SCF
               by Justin Turney, Rob Parrish, Andy Simmonett
                          and Daniel G. A. Smith
                              RHF Reference
                        1 Threads,    500 MiB Core
         ---------------------------------------------------------

  ==> Geometry <==

    Molecular point group: c2v
    Full point group: C2v

    Geometry (in Angstrom), charge = 0, multiplicity = 1:

       Center              X                  Y                   Z               Mass       
    ------------   -----------------  -----------------  -----------------  -----------------
         O            0.000000000000     0.000000000000    -0.068901675999    15.994914619570
         H            0.000000000000    -0.788010753607     0.546759799326     1.007825032230
         H            0.000000000000     0.788010753607     0.546759799326     1.007825032230

  Running in c2v symmetry.

  Rotational constants: A =     24.84522  B =     13.46843  C =      8.73386 [cm^-1]
  Rotational constants: A = 744840.88666  B = 403773.46454  C = 261834.60534 [MHz]
  Nuclear repulsion =    8.802603130390768

  Charge       = 0
  Multiplicity = 1
  Electrons    = 10
  Nalpha       = 5
  Nbeta        = 5

  ==> Algorithm <==

  SCF Algorithm Type is PK.
  DIIS enabled.
  MOM disabled.
  Fractional occupation disabled.
  Guess Type is SAD.
  Energy threshold   = 1.00e-08
  Density threshold  = 1.00e-08
  Integral threshold = 0.00e+00

  ==> Primary Basis <==

  Basis Set: 6-31G
    Blend: 6-31G
    Number of shells: 9
    Number of basis function: 13
    Number of Cartesian functions: 13
    Spherical Harmonics?: false
    Max angular momentum: 1

  ==> Pre-Iterations <==

   -------------------------------------------------------
    Irrep   Nso     Nmo     Nalpha   Nbeta   Ndocc  Nsocc
   -------------------------------------------------------
     A1         7       7       0       0       0       0
     A2         0       0       0       0       0       0
     B1         2       2       0       0       0       0
     B2         4       4       0       0       0       0
   -------------------------------------------------------
    Total      13      13       5       5       5       0
   -------------------------------------------------------

  ==> Integral Setup <==

  Using in-core PK algorithm.
   Calculation information:
      Number of atoms:                   3
      Number of AO shells:               9
      Number of primitives:             22
      Number of atomic orbitals:        13
      Number of basis functions:        13

      Integral cutoff                 1.00e-12
      Number of threads:                 1

  Performing in-core PK
  Using 8372 doubles for integral storage.
  We computed 1035 shell quartets total.
  Whereas there are 1035 unique shell quartets.

  ==> DiskJK: Disk-Based J/K Matrices <==

    J tasked:                  Yes
    K tasked:                  Yes
    wK tasked:                  No
    Memory [MiB]:              375
    Schwarz Cutoff:          1E-12

    OpenMP threads:              1

  Minimum eigenvalue in the overlap matrix is 7.3796633101E-02.
  Using Symmetric Orthogonalization.

  SCF Guess: Superposition of Atomic Densities via on-the-fly atomic UHF.

  ==> Iterations <==

                        Total Energy        Delta E     RMS |[F,P]|

   @RHF iter SAD:   -75.46000228365399   -7.54600e+01   0.00000e+00 
   @RHF iter   1:   -75.90402500141303   -4.44023e-01   4.85344e-02 DIIS
   @RHF iter   2:   -75.95839368191552   -5.43687e-02   2.98063e-02 DIIS
   @RHF iter   3:   -75.97961098456742   -2.12173e-02   2.45264e-03 DIIS
   @RHF iter   4:   -75.98000100275431   -3.90018e-04   4.88362e-04 DIIS
   @RHF iter   5:   -75.98001596014304   -1.49574e-05   6.44030e-05 DIIS
   @RHF iter   6:   -75.98001632812129   -3.67978e-07   1.26067e-05 DIIS
   @RHF iter   7:   -75.98001634404660   -1.59253e-08   2.76257e-06 DIIS
   @RHF iter   8:   -75.98001634487925   -8.32642e-10   5.22214e-07 DIIS
   @RHF iter   9:   -75.98001634490005   -2.08047e-11   4.85426e-08 DIIS
   @RHF iter  10:   -75.98001634490032   -2.70006e-13   4.00429e-09 DIIS
  Energy and wave function converged.


  ==> Post-Iterations <==

    Orbital Energies [Eh]
    ---------------------

    Doubly Occupied:                                                      

       1A1   -20.569288     2A1    -1.335245     1B2    -0.686085  
       3A1    -0.555263     1B1    -0.499560  

    Virtual:                                                              

       4A1     0.193338     2B2     0.287435     3B2     1.038874  
       5A1     1.132233     2B1     1.164184     6A1     1.221705  
       4B2     1.368205     7A1     1.695249  

    Final Occupation by Irrep:
             A1    A2    B1    B2 
    DOCC [     3,    0,    1,    1 ]

  @RHF Final Energy:   -75.98001634490032

   => Energetics <=

    Nuclear Repulsion Energy =              8.8026031303907679
    One-Electron Energy =                -122.2743570153247958
    Two-Electron Energy =                  37.4917375400337249
    Total Energy =                        -75.9800163449003065

Computation Completed


Properties will be evaluated at   0.000000,   0.000000,   0.000000 [a0]

Properties computed using the SCF density matrix

  Nuclear Dipole Moment: [e a0]
     X:     0.0000      Y:     0.0000      Z:     1.0248

  Electronic Dipole Moment: [e a0]
     X:     0.0000      Y:     0.0000      Z:     0.0189

  Dipole Moment: [e a0]
     X:     0.0000      Y:     0.0000      Z:     1.0437     Total:     1.0437

  Dipole Moment: [D]
     X:     0.0000      Y:     0.0000      Z:     2.6528     Total:     2.6528


*** tstop() called on adabbott at Fri Jul 19 17:35:08 2019
Module time:
	user time   =       0.31 seconds =       0.01 minutes
	system time =       0.01 seconds =       0.00 minutes
	total time  =          0 seconds =       0.00 minutes
Total time:
	user time   =       0.31 seconds =       0.01 minutes
	system time =       0.01 seconds =       0.00 minutes
	total time  =          0 seconds =       0.00 minutes

*** tstart() called on adabbott
*** at Fri Jul 19 17:35:08 2019


         ------------------------------------------------------------
                                   SCF GRAD                          
                          Rob Parrish, Justin Turney,                
                       Andy Simmonett, and Alex Sokolov              
         ------------------------------------------------------------

  ==> Geometry <==

    Molecular point group: c2v
    Full point group: C2v

    Geometry (in Angstrom), charge = 0, multiplicity = 1:

       Center              X                  Y                   Z               Mass       
    ------------   -----------------  -----------------  -----------------  -----------------
         O            0.000000000000     0.000000000000    -0.068901675999    15.994914619570
         H            0.000000000000    -0.788010753607     0.546759799326     1.007825032230
         H            0.000000000000     0.788010753607     0.546759799326     1.007825032230

  Nuclear repulsion =    8.802603130390768

  ==> Basis Set <==

  Basis Set: 6-31G
    Blend: 6-31G
    Number of shells: 9
    Number of basis function: 13
    Number of Cartesian functions: 13
    Spherical Harmonics?: false
    Max angular momentum: 1

  ==> DirectJKGrad: Integral-Direct SCF Gradients <==

    Gradient:                    1
    J tasked:                  Yes
    K tasked:                  Yes
    wK tasked:                  No
    Integrals threads:           1
    Schwarz Cutoff:          0E+00


  -Total Gradient:
     Atom            X                  Y                   Z
    ------   -----------------  -----------------  -----------------
       1       -0.000000000000     0.000000000000    -0.065762998663
       2        0.000000000000    -0.027413097741     0.032881499331
       3       -0.000000000000     0.027413097741     0.032881499331


*** tstop() called on adabbott at Fri Jul 19 17:35:08 2019
Module time:
	user time   =       0.04 seconds =       0.00 minutes
	system time =       0.00 seconds =       0.00 minutes
	total time  =          0 seconds =       0.00 minutes
Total time:
	user time   =       0.35 seconds =       0.01 minutes
	system time =       0.01 seconds =       0.00 minutes
	total time  =          0 seconds =       0.00 minutes

			-----------------------------------------
			 OPTKING 2.0: for geometry optimizations 
			  - R.A. King,  Bethel University        
			-----------------------------------------

	Internal coordinates to be generated automatically.
	Detected frag 1 with atoms:  1 2 3
	---Fragment 1 Bond Connectivity---
	 1 : 2 3
	 2 : 1
	 3 : 1

	---Fragment 1 Geometry and Gradient---
	 O           0.0000000000        0.0000000000       -0.1302052972
	 H           0.0000000000       -1.4891245082        1.0332262771
	 H           0.0000000000        1.4891245082        1.0332262771
	            -0.0000000000        0.0000000000       -0.0657629987
	             0.0000000000       -0.0274130977        0.0328814993
	            -0.0000000000        0.0274130977        0.0328814993

	Previous optimization step data not found.  Starting new optimization.

	---Fragment 1 Intrafragment Coordinates---
	 - Coordinate -           - BOHR/RAD -       - ANG/DEG -
	 R(1,2)           =         1.889726	       1.000000
	 R(1,3)           =         1.889726	       1.000000
	 B(2,1,3)         =         1.815142	     104.000000

	Current energy   :       -75.9800163449

	Generating empirical Hessian (Schlegel '84) for each fragment.
	Taking RFO optimization step.
	Going to follow RFO solution 1.
	Using RFO vector 1.
	Norm of target step-size    0.15827
	Projected energy change by RFO approximation:        -0.0068288173

	Back-transformation to cartesian coordinates...
	Successfully converged to displaced geometry.

	--- Internal Coordinate Step in ANG or DEG, aJ/ANG or AJ/DEG ---
	 ---------------------------------------------------------------------------
	   Coordinate                Previous        Force       Change         New 
	   ----------                --------       ------       ------       ------
	    1 R(1,2)          =      1.000000    -0.344755    -0.045580     0.954420
	    2 R(1,3)          =      1.000000    -0.344755    -0.045580     0.954420
	    3 B(2,1,3)        =    104.000000     0.001299     5.789948   109.789948
	 ---------------------------------------------------------------------------
	Successfully symmetrized geometry.

  ==> Convergence Check <==

  Measures of convergence in internal coordinates in au.
  Criteria marked as inactive (o), active & met (*), and active & unmet ( ).
  --------------------------------------------------------------------------------------------- ~
   Step     Total Energy     Delta E     MAX Force     RMS Force      MAX Disp      RMS Disp    ~
  --------------------------------------------------------------------------------------------- ~
    Convergence Criteria    1.00e-06 *    3.00e-04 *             o    1.20e-03 *             o  ~
  --------------------------------------------------------------------------------------------- ~
      1     -75.98001634   -7.60e+01      4.18e-02      3.56e-02 o    1.01e-01      9.14e-02 o  ~
  ---------------------------------------------------------------------------------------------

	Writing optimization data to binary file.
	Structure for next step:
	Cartesian Geometry (in Angstrom)
	    O     0.0000000000   0.0000000000  -0.0243705097
	    H     0.0000000000  -0.7808099040   0.5244942141
	    H     0.0000000000   0.7808099040   0.5244942141
			--------------------------
			 OPTKING Finished Execution 
			--------------------------

    Structure for next step:
    Molecular point group: c2v
    Full point group: C2v

    Geometry (in Angstrom), charge = 0, multiplicity = 1:

    O       
    H             1          r1
    H             1          r1      2          a1

    a1        =  109.7899478660
    r1        =    0.9544195086

gradient() will perform analytic gradient computation.

*** tstart() called on adabbott
*** at Fri Jul 19 17:35:08 2019

   => Loading Basis Set <=

    Name: 6-31G
    Role: ORBITAL
    Keyword: BASIS
    atoms 1   entry O          line   117 file /home/adabbott/anaconda3/envs/peslearn/share/psi4/basis/6-31g.gbs 
    atoms 2-3 entry H          line    26 file /home/adabbott/anaconda3/envs/peslearn/share/psi4/basis/6-31g.gbs 


         ---------------------------------------------------------
                                   SCF
               by Justin Turney, Rob Parrish, Andy Simmonett
                          and Daniel G. A. Smith
                              RHF Reference
                        1 Threads,    500 MiB Core
         ---------------------------------------------------------

  ==> Geometry <==

    Molecular point group: c2v
    Full point group: C2v

    Geometry (in Angstrom), charge = 0, multiplicity = 1:

       Center              X                  Y                   Z               Mass       
    ------------   -----------------  -----------------  -----------------  -----------------
         O            0.000000000000     0.000000000000    -0.061426126258    15.994914619570
         H            0.000000000000    -0.780809907076     0.487438599701     1.007825032230
         H            0.000000000000     0.780809907076     0.487438599701     1.007825032230

  Running in c2v symmetry.

  Rotational constants: A =     31.26051  B =     13.71800  C =      9.53415 [cm^-1]
  Rotational constants: A = 937166.64767  B = 411255.22844  C = 285826.48398 [MHz]
  Nuclear repulsion =    9.210052805482109

  Charge       = 0
  Multiplicity = 1
  Electrons    = 10
  Nalpha       = 5
  Nbeta        = 5

  ==> Algorithm <==

  SCF Algorithm Type is PK.
  DIIS enabled.
  MOM disabled.
  Fractional occupation disabled.
  Guess Type is READ.
  Energy threshold   = 1.00e-08
  Density threshold  = 1.00e-08
  Integral threshold = 0.00e+00

  ==> Primary Basis <==

  Basis Set: 6-31G
    Blend: 6-31G
    Number of shells: 9
    Number of basis function: 13
    Number of Cartesian functions: 13
    Spherical Harmonics?: false
    Max angular momentum: 1

   => Loading Basis Set <=

    Name: 6-31G
    Role: ORBITAL
    Keyword: BASIS
    atoms 1   entry O          line   117 file /home/adabbott/anaconda3/envs/peslearn/share/psi4/basis/6-31g.gbs 
    atoms 2-3 entry H          line    26 file /home/adabbott/anaconda3/envs/peslearn/share/psi4/basis/6-31g.gbs 

  Reading orbitals from file 180, no projection.

  ==> Pre-Iterations <==

   -------------------------------------------------------
    Irrep   Nso     Nmo     Nalpha   Nbeta   Ndocc  Nsocc
   -------------------------------------------------------
     A1         7       7       0       0       0       0
     A2         0       0       0       0       0       0
     B1         2       2       0       0       0       0
     B2         4       4       0       0       0       0
   -------------------------------------------------------
    Total      13      13       5       5       5       0
   -------------------------------------------------------

  ==> Integral Setup <==

  Using in-core PK algorithm.
   Calculation information:
      Number of atoms:                   3
      Number of AO shells:               9
      Number of primitives:             22
      Number of atomic orbitals:        13
      Number of basis functions:        13

      Integral cutoff                 1.00e-12
      Number of threads:                 1

  Performing in-core PK
  Using 8372 doubles for integral storage.
  We computed 1035 shell quartets total.
  Whereas there are 1035 unique shell quartets.

  ==> DiskJK: Disk-Based J/K Matrices <==

    J tasked:                  Yes
    K tasked:                  Yes
    wK tasked:                  No
    Memory [MiB]:              375
    Schwarz Cutoff:          1E-12

    OpenMP threads:              1

  Minimum eigenvalue in the overlap matrix is 6.8804149347E-02.
  Using Symmetric Orthogonalization.

  SCF Guess: Orbitals guess was supplied from a previous computation.

  ==> Iterations <==

                        Total Energy        Delta E     RMS |[F,P]|

   @RHF iter   0:   -76.03459400295520   -7.60346e+01   1.22176e-02 
   @RHF iter   1:   -75.98502828846230    4.95657e-02   1.79724e-03 DIIS
   @RHF iter   2:   -75.98521650627691   -1.88218e-04   5.57801e-04 DIIS
   @RHF iter   3:   -75.98524626445072   -2.97582e-05   2.34197e-04 DIIS
   @RHF iter   4:   -75.98524936652599   -3.10208e-06   7.17738e-05 DIIS
   @RHF iter   5:   -75.98524990102061   -5.34495e-07   7.93328e-06 DIIS
   @RHF iter   6:   -75.98524990616301   -5.14240e-09   1.45938e-06 DIIS
   @RHF iter   7:   -75.98524990629902   -1.36012e-10   1.39454e-07 DIIS
   @RHF iter   8:   -75.98524990630023   -1.20792e-12   1.65603e-08 DIIS
   @RHF iter   9:   -75.98524990630020    2.84217e-14   1.06075e-09 DIIS
  Energy and wave function converged.


  ==> Post-Iterations <==

    Orbital Energies [Eh]
    ---------------------

    Doubly Occupied:                                                      

       1A1   -20.555792     2A1    -1.351936     1B2    -0.720729  
       3A1    -0.550877     1B1    -0.498892  

    Virtual:                                                              

       4A1     0.205545     2B2     0.301463     3B2     1.091322  
       5A1     1.165730     2B1     1.166504     6A1     1.206506  
       4B2     1.385643     7A1     1.680316  

    Final Occupation by Irrep:
             A1    A2    B1    B2 
    DOCC [     3,    0,    1,    1 ]

  @RHF Final Energy:   -75.98524990630020

   => Energetics <=

    Nuclear Repulsion Energy =              9.2100528054821087
    One-Electron Energy =                -123.0341561946554378
    Two-Electron Energy =                  37.8388534828731267
    Total Energy =                        -75.9852499063001972

Computation Completed


Properties will be evaluated at   0.000000,   0.000000,   0.000000 [a0]

Properties computed using the SCF density matrix

  Nuclear Dipole Moment: [e a0]
     X:     0.0000      Y:     0.0000      Z:     0.9136

  Electronic Dipole Moment: [e a0]
     X:     0.0000      Y:     0.0000      Z:     0.0839

  Dipole Moment: [e a0]
     X:     0.0000      Y:     0.0000      Z:     0.9975     Total:     0.9975

  Dipole Moment: [D]
     X:     0.0000      Y:     0.0000      Z:     2.5355     Total:     2.5355


*** tstop() called on adabbott at Fri Jul 19 17:35:08 2019
Module time:
	user time   =       0.13 seconds =       0.00 minutes
	system time =       0.01 seconds =       0.00 minutes
	total time  =          0 seconds =       0.00 minutes
Total time:
	user time   =       0.49 seconds =       0.01 minutes
	system time =       0.02 seconds =       0.00 minutes
	total time  =          0 seconds =       0.00 minutes

*** tstart() called on adabbott
*** at Fri Jul 19 17:35:08 2019


         ------------------------------------------------------------
                                   SCF GRAD                          
                          Rob Parrish, Justin Turney,                
                       Andy Simmonett, and Alex Sokolov              
         ------------------------------------------------------------

  ==> Geometry <==

    Molecular point group: c2v
    Full point group: C2v

    Geometry (in Angstrom), charge = 0, multiplicity = 1:

       Center              X                  Y                   Z               Mass       
    ------------   -----------------  -----------------  -----------------  -----------------
         O            0.000000000000     0.000000000000    -0.061426126258    15.994914619570
         H            0.000000000000    -0.780809907076     0.487438599701     1.007825032230
         H            0.000000000000     0.780809907076     0.487438599701     1.007825032230

  Nuclear repulsion =    9.210052805482109

  ==> Basis Set <==

  Basis Set: 6-31G
    Blend: 6-31G
    Number of shells: 9
    Number of basis function: 13
    Number of Cartesian functions: 13
    Spherical Harmonics?: false
    Max angular momentum: 1

  ==> DirectJKGrad: Integral-Direct SCF Gradients <==

    Gradient:                    1
    J tasked:                  Yes
    K tasked:                  Yes
    wK tasked:                  No
    Integrals threads:           1
    Schwarz Cutoff:          0E+00


  -Total Gradient:
     Atom            X                  Y                   Z
    ------   -----------------  -----------------  -----------------
       1       -0.000000000000     0.000000000000    -0.008945778053
       2        0.000000000000    -0.001761104872     0.004472889026
       3       -0.000000000000     0.001761104872     0.004472889026


*** tstop() called on adabbott at Fri Jul 19 17:35:08 2019
Module time:
	user time   =       0.04 seconds =       0.00 minutes
	system time =       0.00 seconds =       0.00 minutes
	total time  =          0 seconds =       0.00 minutes
Total time:
	user time   =       0.53 seconds =       0.01 minutes
	system time =       0.02 seconds =       0.00 minutes
	total time  =          0 seconds =       0.00 minutes

			-----------------------------------------
			 OPTKING 2.0: for geometry optimizations 
			  - R.A. King,  Bethel University        
			-----------------------------------------

	Previous internal coordinate definitions found.
	---Fragment 1 Geometry and Gradient---
	 O           0.0000000000        0.0000000000       -0.1160785556
	 H           0.0000000000       -1.4755168804        0.9211254564
	 H           0.0000000000        1.4755168804        0.9211254564
	            -0.0000000000        0.0000000000       -0.0089457781
	             0.0000000000       -0.0017611049        0.0044728890
	            -0.0000000000        0.0017611049        0.0044728890

	---Fragment 1 Intrafragment Coordinates---
	 - Coordinate -           - BOHR/RAD -       - ANG/DEG -
	 R(1,2)           =         1.803591	       0.954420
	 R(1,3)           =         1.803591	       0.954420
	 B(2,1,3)         =         1.916196	     109.789948

	Current energy   :       -75.9852499063

	Energy change for the previous step:
		Projected    :        -0.0068288173
		Actual       :        -0.0052335614
	Energy ratio indicates good step: Trust radius increased to 1.000e+00.


	Performing BFGS update.
	Previous computed or guess Hessian on step 1.
	Steps to be used in Hessian update: 1
	Taking RFO optimization step.
	Going to follow RFO solution 1.
	Using RFO vector 1.
	Norm of target step-size    0.03685
	Projected energy change by RFO approximation:        -0.0003588664

	Back-transformation to cartesian coordinates...
	Successfully converged to displaced geometry.

	--- Internal Coordinate Step in ANG or DEG, aJ/ANG or AJ/DEG ---
	 ---------------------------------------------------------------------------
	   Coordinate                Previous        Force       Change         New 
	   ----------                --------       ------       ------       ------
	    1 R(1,2)          =      0.954420    -0.033062    -0.005271     0.949149
	    2 R(1,3)          =      0.954420    -0.033062    -0.005271     0.949149
	    3 B(2,1,3)        =    109.789948     0.000363     1.950874   111.740822
	 ---------------------------------------------------------------------------
	Successfully symmetrized geometry.

  ==> Convergence Check <==

  Measures of convergence in internal coordinates in au.
  Criteria marked as inactive (o), active & met (*), and active & unmet ( ).
  ---------------------------------------------------------------------------------------------
   Step     Total Energy     Delta E     MAX Force     RMS Force      MAX Disp      RMS Disp   
  ---------------------------------------------------------------------------------------------
    Convergence Criteria    1.00e-06 *    3.00e-04 *             o    1.20e-03 *             o
  ---------------------------------------------------------------------------------------------
      2     -75.98524991   -5.23e-03      4.77e-03      4.28e-03 o    3.40e-02      2.13e-02 o  ~
  ---------------------------------------------------------------------------------------------

	Writing optimization data to binary file.
	Structure for next step:
	Cartesian Geometry (in Angstrom)
	    O     0.0000000000   0.0000000000  -0.0505399845
	    H     0.0000000000  -0.7856773677   0.4819955270
	    H     0.0000000000   0.7856773677   0.4819955270
			--------------------------
			 OPTKING Finished Execution 
			--------------------------

    Structure for next step:
    Molecular point group: c2v
    Full point group: C2v

    Geometry (in Angstrom), charge = 0, multiplicity = 1:

    O       
    H             1          r1
    H             1          r1      2          a1

    a1        =  111.7408220153
    r1        =    0.9491485681

gradient() will perform analytic gradient computation.

*** tstart() called on adabbott
*** at Fri Jul 19 17:35:08 2019

   => Loading Basis Set <=

    Name: 6-31G
    Role: ORBITAL
    Keyword: BASIS
    atoms 1   entry O          line   117 file /home/adabbott/anaconda3/envs/peslearn/share/psi4/basis/6-31g.gbs 
    atoms 2-3 entry H          line    26 file /home/adabbott/anaconda3/envs/peslearn/share/psi4/basis/6-31g.gbs 


         ---------------------------------------------------------
                                   SCF
               by Justin Turney, Rob Parrish, Andy Simmonett
                          and Daniel G. A. Smith
                              RHF Reference
                        1 Threads,    500 MiB Core
         ---------------------------------------------------------

  ==> Geometry <==

    Molecular point group: c2v
    Full point group: C2v

    Geometry (in Angstrom), charge = 0, multiplicity = 1:

       Center              X                  Y                   Z               Mass       
    ------------   -----------------  -----------------  -----------------  -----------------
         O            0.000000000000     0.000000000000    -0.059598644524    15.994914619570
         H            0.000000000000    -0.785677370816     0.472936869058     1.007825032230
         H            0.000000000000     0.785677370816     0.472936869058     1.007825032230

  Running in c2v symmetry.

  Rotational constants: A =     33.20700  B =     13.54855  C =      9.62253 [cm^-1]
  Rotational constants: A = 995520.74734  B = 406175.35913  C = 288476.22192 [MHz]
  Nuclear repulsion =    9.257218145148128

  Charge       = 0
  Multiplicity = 1
  Electrons    = 10
  Nalpha       = 5
  Nbeta        = 5

  ==> Algorithm <==

  SCF Algorithm Type is PK.
  DIIS enabled.
  MOM disabled.
  Fractional occupation disabled.
  Guess Type is READ.
  Energy threshold   = 1.00e-08
  Density threshold  = 1.00e-08
  Integral threshold = 0.00e+00

  ==> Primary Basis <==

  Basis Set: 6-31G
    Blend: 6-31G
    Number of shells: 9
    Number of basis function: 13
    Number of Cartesian functions: 13
    Spherical Harmonics?: false
    Max angular momentum: 1

   => Loading Basis Set <=

    Name: 6-31G
    Role: ORBITAL
    Keyword: BASIS
    atoms 1   entry O          line   117 file /home/adabbott/anaconda3/envs/peslearn/share/psi4/basis/6-31g.gbs 
    atoms 2-3 entry H          line    26 file /home/adabbott/anaconda3/envs/peslearn/share/psi4/basis/6-31g.gbs 

  Reading orbitals from file 180, no projection.

  ==> Pre-Iterations <==

   -------------------------------------------------------
    Irrep   Nso     Nmo     Nalpha   Nbeta   Ndocc  Nsocc
   -------------------------------------------------------
     A1         7       7       0       0       0       0
     A2         0       0       0       0       0       0
     B1         2       2       0       0       0       0
     B2         4       4       0       0       0       0
   -------------------------------------------------------
    Total      13      13       5       5       5       0
   -------------------------------------------------------

  ==> Integral Setup <==

  Using in-core PK algorithm.
   Calculation information:
      Number of atoms:                   3
      Number of AO shells:               9
      Number of primitives:             22
      Number of atomic orbitals:        13
      Number of basis functions:        13

      Integral cutoff                 1.00e-12
      Number of threads:                 1

  Performing in-core PK
  Using 8372 doubles for integral storage.
  We computed 1035 shell quartets total.
  Whereas there are 1035 unique shell quartets.

  ==> DiskJK: Disk-Based J/K Matrices <==

    J tasked:                  Yes
    K tasked:                  Yes
    wK tasked:                  No
    Memory [MiB]:              375
    Schwarz Cutoff:          1E-12

    OpenMP threads:              1

  Minimum eigenvalue in the overlap matrix is 6.8622171500E-02.
  Using Symmetric Orthogonalization.

  SCF Guess: Orbitals guess was supplied from a previous computation.

  ==> Iterations <==

                        Total Energy        Delta E     RMS |[F,P]|

   @RHF iter   0:   -75.99220041362379   -7.59922e+01   1.67974e-03 
   @RHF iter   1:   -75.98534964704756    6.85077e-03   3.34404e-04 DIIS
   @RHF iter   2:   -75.98535643539533   -6.78835e-06   1.18043e-04 DIIS
   @RHF iter   3:   -75.98535767282571   -1.23743e-06   6.42814e-05 DIIS
   @RHF iter   4:   -75.98535789199489   -2.19169e-07   1.22372e-05 DIIS
   @RHF iter   5:   -75.98535790954065   -1.75458e-08   1.20752e-06 DIIS
   @RHF iter   6:   -75.98535790964966   -1.09011e-10   1.82172e-07 DIIS
   @RHF iter   7:   -75.98535790965164   -1.97531e-12   2.33224e-08 DIIS
   @RHF iter   8:   -75.98535790965167   -2.84217e-14   2.69858e-09 DIIS
  Energy and wave function converged.


  ==> Post-Iterations <==

    Orbital Energies [Eh]
    ---------------------

    Doubly Occupied:                                                      

       1A1   -20.553238     2A1    -1.352571     1B2    -0.726977  
       3A1    -0.547935     1B1    -0.498231  

    Virtual:                                                              

       4A1     0.207132     2B2     0.303050     3B2     1.107057  
       5A1     1.160572     2B1     1.167239     6A1     1.204488  
       4B2     1.389296     7A1     1.675661  

    Final Occupation by Irrep:
             A1    A2    B1    B2 
    DOCC [     3,    0,    1,    1 ]

  @RHF Final Energy:   -75.98535790965167

   => Energetics <=

    Nuclear Repulsion Energy =              9.2572181451481281
    One-Electron Energy =                -123.1272496501663483
    Two-Electron Energy =                  37.8846735953665430
    Total Energy =                        -75.9853579096516683

Computation Completed


Properties will be evaluated at   0.000000,   0.000000,   0.000000 [a0]

Properties computed using the SCF density matrix

  Nuclear Dipole Moment: [e a0]
     X:     0.0000      Y:     0.0000      Z:     0.8864

  Electronic Dipole Moment: [e a0]
     X:     0.0000      Y:     0.0000      Z:     0.0958

  Dipole Moment: [e a0]
     X:     0.0000      Y:     0.0000      Z:     0.9823     Total:     0.9823

  Dipole Moment: [D]
     X:     0.0000      Y:     0.0000      Z:     2.4966     Total:     2.4966


*** tstop() called on adabbott at Fri Jul 19 17:35:09 2019
Module time:
	user time   =       0.15 seconds =       0.00 minutes
	system time =       0.00 seconds =       0.00 minutes
	total time  =          1 seconds =       0.02 minutes
Total time:
	user time   =       0.68 seconds =       0.01 minutes
	system time =       0.02 seconds =       0.00 minutes
	total time  =          1 seconds =       0.02 minutes

*** tstart() called on adabbott
*** at Fri Jul 19 17:35:09 2019


         ------------------------------------------------------------
                                   SCF GRAD                          
                          Rob Parrish, Justin Turney,                
                       Andy Simmonett, and Alex Sokolov              
         ------------------------------------------------------------

  ==> Geometry <==

    Molecular point group: c2v
    Full point group: C2v

    Geometry (in Angstrom), charge = 0, multiplicity = 1:

       Center              X                  Y                   Z               Mass       
    ------------   -----------------  -----------------  -----------------  -----------------
         O            0.000000000000     0.000000000000    -0.059598644524    15.994914619570
         H            0.000000000000    -0.785677370816     0.472936869058     1.007825032230
         H            0.000000000000     0.785677370816     0.472936869058     1.007825032230

  Nuclear repulsion =    9.257218145148128

  ==> Basis Set <==

  Basis Set: 6-31G
    Blend: 6-31G
    Number of shells: 9
    Number of basis function: 13
    Number of Cartesian functions: 13
    Spherical Harmonics?: false
    Max angular momentum: 1

  ==> DirectJKGrad: Integral-Direct SCF Gradients <==

    Gradient:                    1
    J tasked:                  Yes
    K tasked:                  Yes
    wK tasked:                  No
    Integrals threads:           1
    Schwarz Cutoff:          0E+00


  -Total Gradient:
     Atom            X                  Y                   Z
    ------   -----------------  -----------------  -----------------
       1        0.000000000000     0.000000000000     0.000937951527
       2       -0.000000000000     0.000167238587    -0.000468975763
       3        0.000000000000    -0.000167238587    -0.000468975763


*** tstop() called on adabbott at Fri Jul 19 17:35:09 2019
Module time:
	user time   =       0.04 seconds =       0.00 minutes
	system time =       0.00 seconds =       0.00 minutes
	total time  =          0 seconds =       0.00 minutes
Total time:
	user time   =       0.72 seconds =       0.01 minutes
	system time =       0.02 seconds =       0.00 minutes
	total time  =          1 seconds =       0.02 minutes

			-----------------------------------------
			 OPTKING 2.0: for geometry optimizations 
			  - R.A. King,  Bethel University        
			-----------------------------------------

	Previous internal coordinate definitions found.
	---Fragment 1 Geometry and Gradient---
	 O           0.0000000000        0.0000000000       -0.1126251156
	 H           0.0000000000       -1.4847150538        0.8937211572
	 H           0.0000000000        1.4847150538        0.8937211572
	             0.0000000000        0.0000000000        0.0009379515
	            -0.0000000000        0.0001672386       -0.0004689758
	             0.0000000000       -0.0001672386       -0.0004689758

	---Fragment 1 Intrafragment Coordinates---
	 - Coordinate -           - BOHR/RAD -       - ANG/DEG -
	 R(1,2)           =         1.793631	       0.949149
	 R(1,3)           =         1.793631	       0.949149
	 B(2,1,3)         =         1.950245	     111.740822

	Current energy   :       -75.9853579097

	Energy change for the previous step:
		Projected    :        -0.0003588664
		Actual       :        -0.0001080034

	Performing BFGS update.
	Previous computed or guess Hessian on step 1.
	Steps to be used in Hessian update: 2 1
	Taking RFO optimization step.
	Going to follow RFO solution 1.
	Using RFO vector 1.
	Norm of target step-size    0.00391
	Projected energy change by RFO approximation:        -0.0000040295

	Back-transformation to cartesian coordinates...
	Successfully converged to displaced geometry.

	--- Internal Coordinate Step in ANG or DEG, aJ/ANG or AJ/DEG ---
	 ---------------------------------------------------------------------------
	   Coordinate                Previous        Force       Change         New 
	   ----------                --------       ------       ------       ------
	    1 R(1,2)          =      0.949149     0.003308     0.000528     0.949677
	    2 R(1,3)          =      0.949149     0.003308     0.000528     0.949677
	    3 B(2,1,3)        =    111.740822    -0.000040    -0.209032   111.531790
	 ---------------------------------------------------------------------------
	Successfully symmetrized geometry.

  ==> Convergence Check <==

  Measures of convergence in internal coordinates in au.
  Criteria marked as inactive (o), active & met (*), and active & unmet ( ).
  ---------------------------------------------------------------------------------------------
   Step     Total Energy     Delta E     MAX Force     RMS Force      MAX Disp      RMS Disp   
  ---------------------------------------------------------------------------------------------
    Convergence Criteria    1.00e-06 *    3.00e-04 *             o    1.20e-03 *             o
  ---------------------------------------------------------------------------------------------
      3     -75.98535791   -1.08e-04      5.28e-04      4.48e-04 o    3.65e-03      2.26e-03 o  ~
  ---------------------------------------------------------------------------------------------

	Writing optimization data to binary file.
	Structure for next step:
	Cartesian Geometry (in Angstrom)
	    O     0.0000000000   0.0000000000  -0.0607515270
	    H     0.0000000000  -0.7851411273   0.4735133086
	    H     0.0000000000   0.7851411273   0.4735133086
			--------------------------
			 OPTKING Finished Execution 
			--------------------------

    Structure for next step:
    Molecular point group: c2v
    Full point group: C2v

    Geometry (in Angstrom), charge = 0, multiplicity = 1:

    O       
    H             1          r1
    H             1          r1      2          a1

    a1        =  111.5317899574
    r1        =    0.9496765298

gradient() will perform analytic gradient computation.

*** tstart() called on adabbott
*** at Fri Jul 19 17:35:09 2019

   => Loading Basis Set <=

    Name: 6-31G
    Role: ORBITAL
    Keyword: BASIS
    atoms 1   entry O          line   117 file /home/adabbott/anaconda3/envs/peslearn/share/psi4/basis/6-31g.gbs 
    atoms 2-3 entry H          line    26 file /home/adabbott/anaconda3/envs/peslearn/share/psi4/basis/6-31g.gbs 


         ---------------------------------------------------------
                                   SCF
               by Justin Turney, Rob Parrish, Andy Simmonett
                          and Daniel G. A. Smith
                              RHF Reference
                        1 Threads,    500 MiB Core
         ---------------------------------------------------------

  ==> Geometry <==

    Molecular point group: c2v
    Full point group: C2v

    Geometry (in Angstrom), charge = 0, multiplicity = 1:

       Center              X                  Y                   Z               Mass       
    ------------   -----------------  -----------------  -----------------  -----------------
         O            0.000000000000     0.000000000000    -0.059792181607    15.994914619570
         H            0.000000000000    -0.785141130358     0.474472656036     1.007825032230
         H            0.000000000000     0.785141130358     0.474472656036     1.007825032230

  Running in c2v symmetry.

  Rotational constants: A =     32.99237  B =     13.56706  C =      9.61373 [cm^-1]
  Rotational constants: A = 989086.51610  B = 406730.37282  C = 288212.25093 [MHz]
  Nuclear repulsion =    9.252488927212678

  Charge       = 0
  Multiplicity = 1
  Electrons    = 10
  Nalpha       = 5
  Nbeta        = 5

  ==> Algorithm <==

  SCF Algorithm Type is PK.
  DIIS enabled.
  MOM disabled.
  Fractional occupation disabled.
  Guess Type is READ.
  Energy threshold   = 1.00e-08
  Density threshold  = 1.00e-08
  Integral threshold = 0.00e+00

  ==> Primary Basis <==

  Basis Set: 6-31G
    Blend: 6-31G
    Number of shells: 9
    Number of basis function: 13
    Number of Cartesian functions: 13
    Spherical Harmonics?: false
    Max angular momentum: 1

   => Loading Basis Set <=

    Name: 6-31G
    Role: ORBITAL
    Keyword: BASIS
    atoms 1   entry O          line   117 file /home/adabbott/anaconda3/envs/peslearn/share/psi4/basis/6-31g.gbs 
    atoms 2-3 entry H          line    26 file /home/adabbott/anaconda3/envs/peslearn/share/psi4/basis/6-31g.gbs 

  Reading orbitals from file 180, no projection.

  ==> Pre-Iterations <==

   -------------------------------------------------------
    Irrep   Nso     Nmo     Nalpha   Nbeta   Ndocc  Nsocc
   -------------------------------------------------------
     A1         7       7       0       0       0       0
     A2         0       0       0       0       0       0
     B1         2       2       0       0       0       0
     B2         4       4       0       0       0       0
   -------------------------------------------------------
    Total      13      13       5       5       5       0
   -------------------------------------------------------

  ==> Integral Setup <==

  Using in-core PK algorithm.
   Calculation information:
      Number of atoms:                   3
      Number of AO shells:               9
      Number of primitives:             22
      Number of atomic orbitals:        13
      Number of basis functions:        13

      Integral cutoff                 1.00e-12
      Number of threads:                 1

  Performing in-core PK
  Using 8372 doubles for integral storage.
  We computed 1035 shell quartets total.
  Whereas there are 1035 unique shell quartets.

  ==> DiskJK: Disk-Based J/K Matrices <==

    J tasked:                  Yes
    K tasked:                  Yes
    wK tasked:                  No
    Memory [MiB]:              375
    Schwarz Cutoff:          1E-12

    OpenMP threads:              1

  Minimum eigenvalue in the overlap matrix is 6.8636096078E-02.
  Using Symmetric Orthogonalization.

  SCF Guess: Orbitals guess was supplied from a previous computation.

  ==> Iterations <==

                        Total Energy        Delta E     RMS |[F,P]|

   @RHF iter   0:   -75.98466648269465   -7.59847e+01   1.71566e-04 
   @RHF iter   1:   -75.98535907794002   -6.92595e-04   3.49613e-05 DIIS
   @RHF iter   2:   -75.98535915231584   -7.43758e-08   1.24468e-05 DIIS
   @RHF iter   3:   -75.98535916596795   -1.36521e-08   6.83381e-06 DIIS
   @RHF iter   4:   -75.98535916844914   -2.48119e-09   1.26216e-06 DIIS
   @RHF iter   5:   -75.98535916863584   -1.86702e-10   1.24882e-07 DIIS
   @RHF iter   6:   -75.98535916863700   -1.16529e-12   1.82372e-08 DIIS
   @RHF iter   7:   -75.98535916863699    1.42109e-14   2.38028e-09 DIIS
  Energy and wave function converged.


  ==> Post-Iterations <==

    Orbital Energies [Eh]
    ---------------------

    Doubly Occupied:                                                      

       1A1   -20.553505     2A1    -1.352521     1B2    -0.726329  
       3A1    -0.548255     1B1    -0.498303  

    Virtual:                                                              

       4A1     0.206972     2B2     0.302893     3B2     1.105343  
       5A1     1.161245     2B1     1.167161     6A1     1.204657  
       4B2     1.388914     7A1     1.676135  

    Final Occupation by Irrep:
             A1    A2    B1    B2 
    DOCC [     3,    0,    1,    1 ]

  @RHF Final Energy:   -75.98535916863699

   => Energetics <=

    Nuclear Repulsion Energy =              9.2524889272126778
    One-Electron Energy =                -123.1178702528539475
    Two-Electron Energy =                  37.8800221570042694
    Total Energy =                        -75.9853591686369896

Computation Completed


Properties will be evaluated at   0.000000,   0.000000,   0.000000 [a0]

Properties computed using the SCF density matrix

  Nuclear Dipole Moment: [e a0]
     X:     0.0000      Y:     0.0000      Z:     0.8893

  Electronic Dipole Moment: [e a0]
     X:     0.0000      Y:     0.0000      Z:     0.0946

  Dipole Moment: [e a0]
     X:     0.0000      Y:     0.0000      Z:     0.9839     Total:     0.9839

  Dipole Moment: [D]
     X:     0.0000      Y:     0.0000      Z:     2.5008     Total:     2.5008


*** tstop() called on adabbott at Fri Jul 19 17:35:09 2019
Module time:
	user time   =       0.13 seconds =       0.00 minutes
	system time =       0.01 seconds =       0.00 minutes
	total time  =          0 seconds =       0.00 minutes
Total time:
	user time   =       0.86 seconds =       0.01 minutes
	system time =       0.03 seconds =       0.00 minutes
	total time  =          1 seconds =       0.02 minutes

*** tstart() called on adabbott
*** at Fri Jul 19 17:35:09 2019


         ------------------------------------------------------------
                                   SCF GRAD                          
                          Rob Parrish, Justin Turney,                
                       Andy Simmonett, and Alex Sokolov              
         ------------------------------------------------------------

  ==> Geometry <==

    Molecular point group: c2v
    Full point group: C2v

    Geometry (in Angstrom), charge = 0, multiplicity = 1:

       Center              X                  Y                   Z               Mass       
    ------------   -----------------  -----------------  -----------------  -----------------
         O            0.000000000000     0.000000000000    -0.059792181607    15.994914619570
         H            0.000000000000    -0.785141130358     0.474472656036     1.007825032230
         H            0.000000000000     0.785141130358     0.474472656036     1.007825032230

  Nuclear repulsion =    9.252488927212678

  ==> Basis Set <==

  Basis Set: 6-31G
    Blend: 6-31G
    Number of shells: 9
    Number of basis function: 13
    Number of Cartesian functions: 13
    Spherical Harmonics?: false
    Max angular momentum: 1

  ==> DirectJKGrad: Integral-Direct SCF Gradients <==

    Gradient:                    1
    J tasked:                  Yes
    K tasked:                  Yes
    wK tasked:                  No
    Integrals threads:           1
    Schwarz Cutoff:          0E+00


  -Total Gradient:
     Atom            X                  Y                   Z
    ------   -----------------  -----------------  -----------------
       1        0.000000000000     0.000000000000    -0.000078932184
       2        0.000000000000    -0.000023371766     0.000039466092
       3       -0.000000000000     0.000023371766     0.000039466092


*** tstop() called on adabbott at Fri Jul 19 17:35:09 2019
Module time:
	user time   =       0.04 seconds =       0.00 minutes
	system time =       0.00 seconds =       0.00 minutes
	total time  =          0 seconds =       0.00 minutes
Total time:
	user time   =       0.90 seconds =       0.01 minutes
	system time =       0.03 seconds =       0.00 minutes
	total time  =          1 seconds =       0.02 minutes

			-----------------------------------------
			 OPTKING 2.0: for geometry optimizations 
			  - R.A. King,  Bethel University        
			-----------------------------------------

	Previous internal coordinate definitions found.
	---Fragment 1 Geometry and Gradient---
	 O           0.0000000000        0.0000000000       -0.1129908477
	 H           0.0000000000       -1.4837017062        0.8966233739
	 H           0.0000000000        1.4837017062        0.8966233739
	             0.0000000000        0.0000000000       -0.0000789322
	             0.0000000000       -0.0000233718        0.0000394661
	            -0.0000000000        0.0000233718        0.0000394661

	---Fragment 1 Intrafragment Coordinates---
	 - Coordinate -           - BOHR/RAD -       - ANG/DEG -
	 R(1,2)           =         1.794629	       0.949677
	 R(1,3)           =         1.794629	       0.949677
	 B(2,1,3)         =         1.946597	     111.531790

	Current energy   :       -75.9853591686

	Energy change for the previous step:
		Projected    :        -0.0000040295
		Actual       :        -0.0000012590

	Performing BFGS update.
	Previous computed or guess Hessian on step 1.
	Steps to be used in Hessian update: 3 2
	Taking RFO optimization step.
	Going to follow RFO solution 1.
	Using RFO vector 1.
	Norm of target step-size    0.00026
	Projected energy change by RFO approximation:        -0.0000000207

	Back-transformation to cartesian coordinates...
	Successfully converged to displaced geometry.

	--- Internal Coordinate Step in ANG or DEG, aJ/ANG or AJ/DEG ---
	 ---------------------------------------------------------------------------
	   Coordinate                Previous        Force       Change         New 
	   ----------                --------       ------       ------       ------
	    1 R(1,2)          =      0.949677    -0.000342    -0.000049     0.949628
	    2 R(1,3)          =      0.949677    -0.000342    -0.000049     0.949628
	    3 B(2,1,3)        =    111.531790     0.000003     0.013024   111.544814
	 ---------------------------------------------------------------------------
	Successfully symmetrized geometry.

  ==> Convergence Check <==

  Measures of convergence in internal coordinates in au.
  Criteria marked as inactive (o), active & met (*), and active & unmet ( ).
  ---------------------------------------------------------------------------------------------
   Step     Total Energy     Delta E     MAX Force     RMS Force      MAX Disp      RMS Disp   
  ---------------------------------------------------------------------------------------------
    Convergence Criteria    1.00e-06 *    3.00e-04 *             o    1.20e-03 *             o
  ---------------------------------------------------------------------------------------------
      4     -75.98535917   -1.26e-06      4.15e-05 *    3.95e-05 o    2.27e-04 *    1.51e-04 o  ~
  ---------------------------------------------------------------------------------------------


  **** Optimization is complete! (in 4 steps) ****

  ==> Optimization Summary <==

  Measures of convergence in internal coordinates in au.
  --------------------------------------------------------------------------------------------------------------- ~
   Step         Total Energy             Delta E       MAX Force       RMS Force        MAX Disp        RMS Disp  ~
  --------------------------------------------------------------------------------------------------------------- ~
      1     -75.980016344900    -75.980016344900      0.04184569      0.03556007      0.10105365      0.09137869  ~
      2     -75.985249906300     -0.005233561400      0.00477320      0.00428143      0.03404918      0.02127420  ~
      3     -75.985357909652     -0.000108003351      0.00052800      0.00044769      0.00364830      0.00225838  ~
      4     -75.985359168637     -0.000001258985      0.00004153      0.00003946      0.00022731      0.00015118  ~
  --------------------------------------------------------------------------------------------------------------- ~

	Writing optimization data to binary file.
	Final energy is    -75.9853591686370
	Final (previous) structure:
	Cartesian Geometry (in Angstrom)
	    O     0.0000000000   0.0000000000  -0.0597921814
	    H     0.0000000000  -0.7851411273   0.4744726542
	    H     0.0000000000   0.7851411273   0.4744726542
	Saving final (previous) structure.
			--------------------------
			 OPTKING Finished Execution 
			--------------------------

    Final optimized geometry and variables:
    Molecular point group: c2v
    Full point group: C2v

    Geometry (in Angstrom), charge = 0, multiplicity = 1:

    O       
    H             1          r1
    H             1          r1      2          a1

    a1        =  111.5317899574
    r1        =    0.9496765298

	Removing binary optimization data file.
	Cleaning optimization helper files.

    Psi4 stopped on: Friday, 19 July 2019 05:35PM
    Psi4 wall time for execution: 0:00:00.97

*** Psi4 exiting successfully. Buy a developer a beer!
