
Host: adabbott

Timers On : Wed Aug 19 12:24:17 2020
Timers Off: Wed Aug 19 12:24:36 2020

Wall Time:       18.29 seconds

                                                       Time (seconds)
Module                                       User      System        Wall        Calls

--------------------------------------------------------------------------------------

**************************************************************************************

Host: adabbott

Timers On : Wed Aug 19 12:32:54 2020
Timers Off: Wed Aug 19 13:00:28 2020

Wall Time:     1654.84 seconds

                                                       Time (seconds)
Module                                       User      System        Wall        Calls

--------------------------------------------------------------------------------------

**************************************************************************************

Host: adabbott

Timers On : Wed Aug 19 13:04:53 2020
Timers Off: Wed Aug 19 13:11:12 2020

Wall Time:      378.93 seconds

                                                       Time (seconds)
Module                                       User      System        Wall        Calls

--------------------------------------------------------------------------------------

**************************************************************************************

Host: adabbott

Timers On : Wed Aug 19 13:12:26 2020
Timers Off: Wed Aug 19 13:18:39 2020

Wall Time:      373.03 seconds

                                                       Time (seconds)
Module                                       User      System        Wall        Calls

--------------------------------------------------------------------------------------

**************************************************************************************

Host: adabbott

Timers On : Wed Aug 19 15:23:57 2020
Timers Off: Wed Aug 19 15:23:57 2020

Wall Time:        0.65 seconds

                                                       Time (seconds)
Module                                       User      System        Wall        Calls

--------------------------------------------------------------------------------------

**************************************************************************************

Host: adabbott

Timers On : Wed Aug 19 15:24:14 2020
Timers Off: Wed Aug 19 15:30:26 2020

Wall Time:      372.09 seconds

                                                       Time (seconds)
Module                                       User      System        Wall        Calls

--------------------------------------------------------------------------------------

**************************************************************************************

Host: adabbott

Timers On : Wed Aug 19 16:22:35 2020
Timers Off: Wed Aug 19 16:28:46 2020

Wall Time:      370.76 seconds

                                                       Time (seconds)
Module                                       User      System        Wall        Calls

--------------------------------------------------------------------------------------

**************************************************************************************

Host: adabbott

Timers On : Wed Aug 19 16:33:55 2020
Timers Off: Wed Aug 19 16:33:56 2020

Wall Time:        0.63 seconds

                                                       Time (seconds)
Module                                       User      System        Wall        Calls

--------------------------------------------------------------------------------------

**************************************************************************************

Host: adabbott

Timers On : Wed Aug 19 17:05:49 2020
Timers Off: Wed Aug 19 17:06:08 2020

Wall Time:       19.51 seconds

                                                       Time (seconds)
Module                                       User      System        Wall        Calls
Total PK formation time             :      0.033u      0.000s      0.023w      1 calls
HF: Form core H                     :      0.000u      0.000s      0.001w      1 calls
HF: Form S/X                        :      0.000u      0.000s      0.000w      1 calls
HF: Guess                           :      0.117u      0.000s      0.069w      1 calls
SAD Guess                           :      0.100u      0.000s      0.061w      1 calls
HF: Form G                          :      0.000u      0.000s      0.000w      8 calls
JK: D                               :      0.000u      0.000s      0.000w      8 calls
JK: USO2AO                          :      0.000u      0.000s      0.000w      8 calls
JK: JK                              :      0.000u      0.000s      0.000w      8 calls
PK computes JK                      :      0.000u      0.000s      0.000w      8 calls
JK: AO2USO                          :      0.000u      0.000s      0.000w      8 calls
HF: Form F                          :      0.000u      0.000s      0.000w      8 calls
HF: Form D                          :      0.000u      0.000s      0.000w      8 calls
HF: DIIS                            :      0.000u      0.000s      0.001w      7 calls
HF: Form C                          :      0.000u      0.000s      0.000w      7 calls

--------------------------------------------------------------------------------------
Total PK formation time             :      0.033u      0.000s      0.023w      1 calls
HF: Form core H                     :      0.000u      0.000s      0.001w      1 calls
HF: Form S/X                        :      0.000u      0.000s      0.000w      1 calls
HF: Guess                           :      0.117u      0.000s      0.069w      1 calls
| SAD Guess                         :      0.100u      0.000s      0.061w      1 calls
HF: Form G                          :      0.000u      0.000s      0.000w      8 calls
| JK: D                             :      0.000u      0.000s      0.000w      8 calls
| JK: USO2AO                        :      0.000u      0.000s      0.000w      8 calls
| JK: JK                            :      0.000u      0.000s      0.000w      8 calls
| | PK computes JK                  :      0.000u      0.000s      0.000w      8 calls
| JK: AO2USO                        :      0.000u      0.000s      0.000w      8 calls
HF: Form F                          :      0.000u      0.000s      0.000w      8 calls
HF: Form D                          :      0.000u      0.000s      0.000w      8 calls
HF: DIIS                            :      0.000u      0.000s      0.001w      7 calls
HF: Form C                          :      0.000u      0.000s      0.000w      7 calls

**************************************************************************************

Host: adabbott

Timers On : Wed Aug 19 17:07:36 2020
Timers Off: Wed Aug 19 17:08:28 2020

Wall Time:       52.17 seconds

                                                       Time (seconds)
Module                                       User      System        Wall        Calls
Total PK formation time             :      0.100u      0.000s      0.055w      1 calls
HF: Form core H                     :      0.000u      0.000s      0.001w      1 calls
HF: Form S/X                        :      0.000u      0.000s      0.000w      1 calls
HF: Guess                           :      0.117u      0.000s      0.072w      1 calls
SAD Guess                           :      0.117u      0.000s      0.064w      1 calls
HF: Form G                          :      0.000u      0.000s      0.001w     10 calls
JK: D                               :      0.000u      0.000s      0.000w     10 calls
JK: USO2AO                          :      0.000u      0.000s      0.000w     10 calls
JK: JK                              :      0.000u      0.000s      0.001w     10 calls
PK computes JK                      :      0.000u      0.000s      0.001w     10 calls
JK: AO2USO                          :      0.000u      0.000s      0.000w     10 calls
HF: Form F                          :      0.017u      0.000s      0.000w     10 calls
HF: Form D                          :      0.000u      0.000s      0.000w     10 calls
HF: DIIS                            :      0.000u      0.000s      0.001w      9 calls
HF: Form C                          :      0.000u      0.000s      0.001w      9 calls

--------------------------------------------------------------------------------------
Total PK formation time             :      0.100u      0.000s      0.055w      1 calls
HF: Form core H                     :      0.000u      0.000s      0.001w      1 calls
HF: Form S/X                        :      0.000u      0.000s      0.000w      1 calls
HF: Guess                           :      0.117u      0.000s      0.072w      1 calls
| SAD Guess                         :      0.117u      0.000s      0.064w      1 calls
HF: Form G                          :      0.000u      0.000s      0.001w     10 calls
| JK: D                             :      0.000u      0.000s      0.000w     10 calls
| JK: USO2AO                        :      0.000u      0.000s      0.000w     10 calls
| JK: JK                            :      0.000u      0.000s      0.001w     10 calls
| | PK computes JK                  :      0.000u      0.000s      0.001w     10 calls
| JK: AO2USO                        :      0.000u      0.000s      0.000w     10 calls
HF: Form F                          :      0.017u      0.000s      0.000w     10 calls
HF: Form D                          :      0.000u      0.000s      0.000w     10 calls
HF: DIIS                            :      0.000u      0.000s      0.001w      9 calls
HF: Form C                          :      0.000u      0.000s      0.001w      9 calls

**************************************************************************************

Host: adabbott

Timers On : Wed Aug 19 17:09:10 2020
Timers Off: Wed Aug 19 17:10:02 2020

Wall Time:       51.98 seconds

                                                       Time (seconds)
Module                                       User      System        Wall        Calls
Total PK formation time             :      0.100u      0.000s      0.056w      1 calls
HF: Form core H                     :      0.000u      0.000s      0.001w      1 calls
HF: Form S/X                        :      0.000u      0.000s      0.000w      1 calls
HF: Guess                           :      0.117u      0.000s      0.073w      1 calls
SAD Guess                           :      0.100u      0.000s      0.065w      1 calls
HF: Form G                          :      0.000u      0.000s      0.001w     10 calls
JK: D                               :      0.000u      0.000s      0.000w     10 calls
JK: USO2AO                          :      0.000u      0.000s      0.000w     10 calls
JK: JK                              :      0.000u      0.000s      0.001w     10 calls
PK computes JK                      :      0.000u      0.000s      0.001w     10 calls
JK: AO2USO                          :      0.000u      0.000s      0.000w     10 calls
HF: Form F                          :      0.000u      0.000s      0.000w     10 calls
HF: Form D                          :      0.000u      0.000s      0.000w     10 calls
HF: DIIS                            :      0.000u      0.000s      0.001w      9 calls
HF: Form C                          :      0.000u      0.000s      0.001w      9 calls

--------------------------------------------------------------------------------------
Total PK formation time             :      0.100u      0.000s      0.056w      1 calls
HF: Form core H                     :      0.000u      0.000s      0.001w      1 calls
HF: Form S/X                        :      0.000u      0.000s      0.000w      1 calls
HF: Guess                           :      0.117u      0.000s      0.073w      1 calls
| SAD Guess                         :      0.100u      0.000s      0.065w      1 calls
HF: Form G                          :      0.000u      0.000s      0.001w     10 calls
| JK: D                             :      0.000u      0.000s      0.000w     10 calls
| JK: USO2AO                        :      0.000u      0.000s      0.000w     10 calls
| JK: JK                            :      0.000u      0.000s      0.001w     10 calls
| | PK computes JK                  :      0.000u      0.000s      0.001w     10 calls
| JK: AO2USO                        :      0.000u      0.000s      0.000w     10 calls
HF: Form F                          :      0.000u      0.000s      0.000w     10 calls
HF: Form D                          :      0.000u      0.000s      0.000w     10 calls
HF: DIIS                            :      0.000u      0.000s      0.001w      9 calls
HF: Form C                          :      0.000u      0.000s      0.001w      9 calls

**************************************************************************************

Host: adabbott

Timers On : Wed Aug 19 17:11:43 2020
Timers Off: Wed Aug 19 17:12:34 2020

Wall Time:       51.44 seconds

                                                       Time (seconds)
Module                                       User      System        Wall        Calls
Total PK formation time             :      0.083u      0.000s      0.055w      1 calls
HF: Form core H                     :      0.000u      0.000s      0.001w      1 calls
HF: Form S/X                        :      0.000u      0.000s      0.000w      1 calls
HF: Guess                           :      0.117u      0.000s      0.072w      1 calls
SAD Guess                           :      0.100u      0.000s      0.064w      1 calls
HF: Form G                          :      0.000u      0.000s      0.001w     10 calls
JK: D                               :      0.000u      0.000s      0.000w     10 calls
JK: USO2AO                          :      0.000u      0.000s      0.000w     10 calls
JK: JK                              :      0.000u      0.000s      0.001w     10 calls
PK computes JK                      :      0.000u      0.000s      0.001w     10 calls
JK: AO2USO                          :      0.000u      0.000s      0.000w     10 calls
HF: Form F                          :      0.000u      0.000s      0.000w     10 calls
HF: Form D                          :      0.000u      0.000s      0.000w     10 calls
HF: DIIS                            :      0.000u      0.000s      0.001w      9 calls
HF: Form C                          :      0.017u      0.000s      0.001w      9 calls

--------------------------------------------------------------------------------------
Total PK formation time             :      0.083u      0.000s      0.055w      1 calls
HF: Form core H                     :      0.000u      0.000s      0.001w      1 calls
HF: Form S/X                        :      0.000u      0.000s      0.000w      1 calls
HF: Guess                           :      0.117u      0.000s      0.072w      1 calls
| SAD Guess                         :      0.100u      0.000s      0.064w      1 calls
HF: Form G                          :      0.000u      0.000s      0.001w     10 calls
| JK: D                             :      0.000u      0.000s      0.000w     10 calls
| JK: USO2AO                        :      0.000u      0.000s      0.000w     10 calls
| JK: JK                            :      0.000u      0.000s      0.001w     10 calls
| | PK computes JK                  :      0.000u      0.000s      0.001w     10 calls
| JK: AO2USO                        :      0.000u      0.000s      0.000w     10 calls
HF: Form F                          :      0.000u      0.000s      0.000w     10 calls
HF: Form D                          :      0.000u      0.000s      0.000w     10 calls
HF: DIIS                            :      0.000u      0.000s      0.001w      9 calls
HF: Form C                          :      0.017u      0.000s      0.001w      9 calls

**************************************************************************************

Host: adabbott

Timers On : Wed Aug 19 17:12:57 2020
Timers Off: Wed Aug 19 17:13:49 2020

Wall Time:       52.14 seconds

                                                       Time (seconds)
Module                                       User      System        Wall        Calls
Total PK formation time             :      0.083u      0.000s      0.055w      1 calls
HF: Form core H                     :      0.000u      0.000s      0.001w      1 calls
HF: Form S/X                        :      0.000u      0.000s      0.000w      1 calls
HF: Guess                           :      0.117u      0.017s      0.072w      1 calls
SAD Guess                           :      0.100u      0.017s      0.064w      1 calls
HF: Form G                          :      0.000u      0.000s      0.001w     10 calls
JK: D                               :      0.000u      0.000s      0.000w     10 calls
JK: USO2AO                          :      0.000u      0.000s      0.000w     10 calls
JK: JK                              :      0.000u      0.000s      0.001w     10 calls
PK computes JK                      :      0.000u      0.000s      0.001w     10 calls
JK: AO2USO                          :      0.000u      0.000s      0.000w     10 calls
HF: Form F                          :      0.000u      0.000s      0.000w     10 calls
HF: Form D                          :      0.000u      0.000s      0.000w     10 calls
HF: DIIS                            :      0.000u      0.000s      0.001w      9 calls
HF: Form C                          :      0.000u      0.000s      0.001w      9 calls

--------------------------------------------------------------------------------------
Total PK formation time             :      0.083u      0.000s      0.055w      1 calls
HF: Form core H                     :      0.000u      0.000s      0.001w      1 calls
HF: Form S/X                        :      0.000u      0.000s      0.000w      1 calls
HF: Guess                           :      0.117u      0.017s      0.072w      1 calls
| SAD Guess                         :      0.100u      0.017s      0.064w      1 calls
HF: Form G                          :      0.000u      0.000s      0.001w     10 calls
| JK: D                             :      0.000u      0.000s      0.000w     10 calls
| JK: USO2AO                        :      0.000u      0.000s      0.000w     10 calls
| JK: JK                            :      0.000u      0.000s      0.001w     10 calls
| | PK computes JK                  :      0.000u      0.000s      0.001w     10 calls
| JK: AO2USO                        :      0.000u      0.000s      0.000w     10 calls
HF: Form F                          :      0.000u      0.000s      0.000w     10 calls
HF: Form D                          :      0.000u      0.000s      0.000w     10 calls
HF: DIIS                            :      0.000u      0.000s      0.001w      9 calls
HF: Form C                          :      0.000u      0.000s      0.001w      9 calls

**************************************************************************************

Host: adabbott

Timers On : Wed Aug 19 17:14:28 2020
Timers Off: Wed Aug 19 17:17:57 2020

Wall Time:      208.42 seconds

                                                       Time (seconds)
Module                                       User      System        Wall        Calls
Total PK formation time             :      0.267u      0.017s      0.186w      1 calls
HF: Form core H                     :      0.000u      0.000s      0.001w      1 calls
HF: Form S/X                        :      0.017u      0.000s      0.001w      1 calls
HF: Guess                           :      0.133u      0.000s      0.083w      1 calls
SAD Guess                           :      0.133u      0.000s      0.075w      1 calls
HF: Form G                          :      0.033u      0.000s      0.030w     11 calls
JK: D                               :      0.000u      0.000s      0.000w     11 calls
JK: USO2AO                          :      0.000u      0.000s      0.000w     11 calls
JK: JK                              :      0.033u      0.000s      0.029w     11 calls
PK computes JK                      :      0.033u      0.000s      0.029w     11 calls
JK: AO2USO                          :      0.000u      0.000s      0.000w     11 calls
HF: Form F                          :      0.000u      0.000s      0.000w     11 calls
HF: Form D                          :      0.000u      0.000s      0.000w     11 calls
HF: DIIS                            :      0.000u      0.000s      0.002w     10 calls
HF: Form C                          :      0.000u      0.000s      0.005w     10 calls

--------------------------------------------------------------------------------------
Total PK formation time             :      0.267u      0.017s      0.186w      1 calls
HF: Form core H                     :      0.000u      0.000s      0.001w      1 calls
HF: Form S/X                        :      0.017u      0.000s      0.001w      1 calls
HF: Guess                           :      0.133u      0.000s      0.083w      1 calls
| SAD Guess                         :      0.133u      0.000s      0.075w      1 calls
HF: Form G                          :      0.033u      0.000s      0.030w     11 calls
| JK: D                             :      0.000u      0.000s      0.000w     11 calls
| JK: USO2AO                        :      0.000u      0.000s      0.000w     11 calls
| JK: JK                            :      0.033u      0.000s      0.029w     11 calls
| | PK computes JK                  :      0.033u      0.000s      0.029w     11 calls
| JK: AO2USO                        :      0.000u      0.000s      0.000w     11 calls
HF: Form F                          :      0.000u      0.000s      0.000w     11 calls
HF: Form D                          :      0.000u      0.000s      0.000w     11 calls
HF: DIIS                            :      0.000u      0.000s      0.002w     10 calls
HF: Form C                          :      0.000u      0.000s      0.005w     10 calls

**************************************************************************************

Host: adabbott

Timers On : Thu Aug 20 12:10:44 2020
Timers Off: Thu Aug 20 12:10:44 2020

Wall Time:        0.67 seconds

                                                       Time (seconds)
Module                                       User      System        Wall        Calls

--------------------------------------------------------------------------------------

**************************************************************************************

Host: adabbott

Timers On : Thu Aug 20 12:11:26 2020
Timers Off: Thu Aug 20 12:11:45 2020

Wall Time:       18.90 seconds

                                                       Time (seconds)
Module                                       User      System        Wall        Calls
Total PK formation time             :      0.033u      0.000s      0.020w      1 calls
HF: Form core H                     :      0.000u      0.000s      0.001w      1 calls
HF: Form S/X                        :      0.000u      0.000s      0.000w      1 calls
HF: Guess                           :      0.117u      0.000s      0.067w      1 calls
SAD Guess                           :      0.100u      0.000s      0.059w      1 calls
HF: Form G                          :      0.000u      0.000s      0.000w      3 calls
JK: D                               :      0.000u      0.000s      0.000w      3 calls
JK: USO2AO                          :      0.000u      0.000s      0.000w      3 calls
JK: JK                              :      0.000u      0.000s      0.000w      3 calls
PK computes JK                      :      0.000u      0.000s      0.000w      3 calls
JK: AO2USO                          :      0.000u      0.000s      0.000w      3 calls
HF: Form F                          :      0.000u      0.000s      0.000w      3 calls
HF: Form D                          :      0.000u      0.000s      0.000w      3 calls
HF: DIIS                            :      0.000u      0.000s      0.000w      2 calls
HF: Form C                          :      0.000u      0.000s      0.000w      2 calls

--------------------------------------------------------------------------------------
Total PK formation time             :      0.033u      0.000s      0.020w      1 calls
HF: Form core H                     :      0.000u      0.000s      0.001w      1 calls
HF: Form S/X                        :      0.000u      0.000s      0.000w      1 calls
HF: Guess                           :      0.117u      0.000s      0.067w      1 calls
| SAD Guess                         :      0.100u      0.000s      0.059w      1 calls
HF: Form G                          :      0.000u      0.000s      0.000w      3 calls
| JK: D                             :      0.000u      0.000s      0.000w      3 calls
| JK: USO2AO                        :      0.000u      0.000s      0.000w      3 calls
| JK: JK                            :      0.000u      0.000s      0.000w      3 calls
| | PK computes JK                  :      0.000u      0.000s      0.000w      3 calls
| JK: AO2USO                        :      0.000u      0.000s      0.000w      3 calls
HF: Form F                          :      0.000u      0.000s      0.000w      3 calls
HF: Form D                          :      0.000u      0.000s      0.000w      3 calls
HF: DIIS                            :      0.000u      0.000s      0.000w      2 calls
HF: Form C                          :      0.000u      0.000s      0.000w      2 calls

**************************************************************************************

Host: adabbott

Timers On : Thu Aug 20 12:19:21 2020
Timers Off: Thu Aug 20 12:19:22 2020

Wall Time:        1.11 seconds

                                                       Time (seconds)
Module                                       User      System        Wall        Calls
Total PK formation time             :      0.067u      0.000s      0.039w      2 calls
HF: Form core H                     :      0.000u      0.000s      0.002w      2 calls
HF: Form S/X                        :      0.000u      0.000s      0.000w      2 calls
HF: Guess                           :      0.200u      0.017s      0.133w      2 calls
SAD Guess                           :      0.200u      0.000s      0.116w      2 calls
HF: Form G                          :      0.000u      0.000s      0.000w      6 calls
JK: D                               :      0.000u      0.000s      0.000w      6 calls
JK: USO2AO                          :      0.000u      0.000s      0.000w      6 calls
JK: JK                              :      0.000u      0.000s      0.000w      6 calls
PK computes JK                      :      0.000u      0.000s      0.000w      6 calls
JK: AO2USO                          :      0.000u      0.000s      0.000w      6 calls
HF: Form F                          :      0.000u      0.000s      0.000w      6 calls
HF: Form D                          :      0.000u      0.000s      0.000w      6 calls
HF: DIIS                            :      0.000u      0.000s      0.001w      4 calls
HF: Form C                          :      0.000u      0.000s      0.000w      4 calls
Grad: V T Perturb                   :      0.000u      0.000s      0.001w      1 calls
Grad: S                             :      0.000u      0.000s      0.000w      1 calls
Grad: JK                            :      0.033u      0.000s      0.021w      1 calls
Grad: XC                            :      0.000u      0.000s      0.000w      1 calls

--------------------------------------------------------------------------------------
Total PK formation time             :      0.067u      0.000s      0.039w      2 calls
HF: Form core H                     :      0.000u      0.000s      0.002w      2 calls
HF: Form S/X                        :      0.000u      0.000s      0.000w      2 calls
HF: Guess                           :      0.200u      0.017s      0.133w      2 calls
| SAD Guess                         :      0.200u      0.000s      0.116w      2 calls
HF: Form G                          :      0.000u      0.000s      0.000w      6 calls
| JK: D                             :      0.000u      0.000s      0.000w      6 calls
| JK: USO2AO                        :      0.000u      0.000s      0.000w      6 calls
| JK: JK                            :      0.000u      0.000s      0.000w      6 calls
| | PK computes JK                  :      0.000u      0.000s      0.000w      6 calls
| JK: AO2USO                        :      0.000u      0.000s      0.000w      6 calls
HF: Form F                          :      0.000u      0.000s      0.000w      6 calls
HF: Form D                          :      0.000u      0.000s      0.000w      6 calls
HF: DIIS                            :      0.000u      0.000s      0.001w      4 calls
HF: Form C                          :      0.000u      0.000s      0.000w      4 calls
Grad: V T Perturb                   :      0.000u      0.000s      0.001w      1 calls
Grad: S                             :      0.000u      0.000s      0.000w      1 calls
Grad: JK                            :      0.033u      0.000s      0.021w      1 calls
Grad: XC                            :      0.000u      0.000s      0.000w      1 calls

**************************************************************************************

Host: adabbott

Timers On : Thu Aug 20 12:32:56 2020
Timers Off: Thu Aug 20 12:33:00 2020

Wall Time:        4.11 seconds

                                                       Time (seconds)
Module                                       User      System        Wall        Calls
Total PK formation time             :      0.467u      0.000s      0.293w      5 calls
HF: Form core H                     :      0.000u      0.000s      0.003w      4 calls
HF: Form S/X                        :      0.000u      0.000s      0.001w      4 calls
HF: Guess                           :      0.533u      0.000s      0.304w      4 calls
SAD Guess                           :      0.467u      0.000s      0.268w      4 calls
HF: Form G                          :      0.000u      0.000s      0.006w     46 calls
JK: D                               :      0.000u      0.000s      0.000w     55 calls
JK: USO2AO                          :      0.000u      0.000s      0.000w     55 calls
JK: JK                              :      0.083u      0.000s      0.057w     55 calls
PK computes JK                      :      0.083u      0.000s      0.057w     55 calls
JK: AO2USO                          :      0.000u      0.000s      0.000w     55 calls
HF: Form F                          :      0.000u      0.000s      0.000w     46 calls
HF: Form D                          :      0.000u      0.000s      0.000w     46 calls
HF: DIIS                            :      0.017u      0.000s      0.006w     42 calls
HF: Form C                          :      0.000u      0.000s      0.003w     42 calls
Grad: V T Perturb                   :      0.050u      0.000s      0.034w      2 calls
Grad: S                             :      0.000u      0.000s      0.001w      2 calls
Grad: JK                            :      0.517u      0.017s      0.313w      2 calls
Grad: XC                            :      0.000u      0.000s      0.000w      2 calls
Hess: V                             :      0.217u      0.083s      0.180w      1 calls
Hess: T                             :      0.000u      0.000s      0.001w      1 calls
Hess: S                             :      0.000u      0.000s      0.000w      1 calls
Hess: JK                            :      1.583u      0.017s      1.122w      1 calls
Hess: XC                            :      0.000u      0.000s      0.000w      1 calls

--------------------------------------------------------------------------------------
Total PK formation time             :      0.467u      0.000s      0.293w      5 calls
HF: Form core H                     :      0.000u      0.000s      0.003w      4 calls
HF: Form S/X                        :      0.000u      0.000s      0.001w      4 calls
HF: Guess                           :      0.533u      0.000s      0.304w      4 calls
| SAD Guess                         :      0.467u      0.000s      0.268w      4 calls
HF: Form G                          :      0.000u      0.000s      0.006w     46 calls
| JK: D                             :      0.000u      0.000s      0.000w     46 calls
| JK: USO2AO                        :      0.000u      0.000s      0.000w     46 calls
| JK: JK                            :      0.000u      0.000s      0.004w     46 calls
| | PK computes JK                  :      0.000u      0.000s      0.004w     46 calls
| JK: AO2USO                        :      0.000u      0.000s      0.000w     46 calls
HF: Form F                          :      0.000u      0.000s      0.000w     46 calls
HF: Form D                          :      0.000u      0.000s      0.000w     46 calls
HF: DIIS                            :      0.017u      0.000s      0.006w     42 calls
HF: Form C                          :      0.000u      0.000s      0.003w     42 calls
Grad: V T Perturb                   :      0.050u      0.000s      0.034w      2 calls
Grad: S                             :      0.000u      0.000s      0.001w      2 calls
Grad: JK                            :      0.517u      0.017s      0.313w      2 calls
Grad: XC                            :      0.000u      0.000s      0.000w      2 calls
Hess: V                             :      0.217u      0.083s      0.180w      1 calls
Hess: T                             :      0.000u      0.000s      0.001w      1 calls
Hess: S                             :      0.000u      0.000s      0.000w      1 calls
Hess: JK                            :      1.583u      0.017s      1.122w      1 calls
Hess: XC                            :      0.000u      0.000s      0.000w      1 calls
JK: D                               :      0.000u      0.000s      0.000w      9 calls
JK: USO2AO                          :      0.000u      0.000s      0.000w      9 calls
JK: JK                              :      0.083u      0.000s      0.053w      9 calls
| PK computes JK                    :      0.083u      0.000s      0.053w      9 calls
JK: AO2USO                          :      0.000u      0.000s      0.000w      9 calls

**************************************************************************************

Host: adabbott

Timers On : Thu Aug 20 12:40:18 2020
Timers Off: Thu Aug 20 12:40:20 2020

Wall Time:        2.18 seconds

                                                       Time (seconds)
Module                                       User      System        Wall        Calls
Total PK formation time             :      0.200u      0.000s      0.115w      5 calls
HF: Form core H                     :      0.017u      0.000s      0.004w      4 calls
HF: Form S/X                        :      0.000u      0.000s      0.000w      4 calls
HF: Guess                           :      0.467u      0.000s      0.283w      4 calls
SAD Guess                           :      0.433u      0.000s      0.248w      4 calls
HF: Form G                          :      0.000u      0.000s      0.001w     39 calls
JK: D                               :      0.000u      0.000s      0.000w     44 calls
JK: USO2AO                          :      0.000u      0.000s      0.000w     44 calls
JK: JK                              :      0.000u      0.000s      0.001w     44 calls
PK computes JK                      :      0.000u      0.000s      0.001w     44 calls
JK: AO2USO                          :      0.000u      0.000s      0.000w     44 calls
HF: Form F                          :      0.000u      0.000s      0.000w     39 calls
HF: Form D                          :      0.000u      0.000s      0.000w     39 calls
HF: DIIS                            :      0.000u      0.000s      0.005w     35 calls
HF: Form C                          :      0.000u      0.000s      0.001w     35 calls
Grad: V T Perturb                   :      0.000u      0.017s      0.007w      2 calls
Grad: S                             :      0.000u      0.000s      0.000w      2 calls
Grad: JK                            :      0.100u      0.000s      0.050w      2 calls
Grad: XC                            :      0.000u      0.000s      0.000w      2 calls
Hess: V                             :      0.083u      0.033s      0.070w      1 calls
Hess: T                             :      0.000u      0.000s      0.000w      1 calls
Hess: S                             :      0.000u      0.000s      0.000w      1 calls
Hess: JK                            :      0.050u      0.000s      0.027w      1 calls
Hess: XC                            :      0.000u      0.000s      0.000w      1 calls

--------------------------------------------------------------------------------------
Total PK formation time             :      0.200u      0.000s      0.115w      5 calls
HF: Form core H                     :      0.017u      0.000s      0.004w      4 calls
HF: Form S/X                        :      0.000u      0.000s      0.000w      4 calls
HF: Guess                           :      0.467u      0.000s      0.283w      4 calls
| SAD Guess                         :      0.433u      0.000s      0.248w      4 calls
HF: Form G                          :      0.000u      0.000s      0.001w     39 calls
| JK: D                             :      0.000u      0.000s      0.000w     39 calls
| JK: USO2AO                        :      0.000u      0.000s      0.000w     39 calls
| JK: JK                            :      0.000u      0.000s      0.000w     39 calls
| | PK computes JK                  :      0.000u      0.000s      0.000w     39 calls
| JK: AO2USO                        :      0.000u      0.000s      0.000w     39 calls
HF: Form F                          :      0.000u      0.000s      0.000w     39 calls
HF: Form D                          :      0.000u      0.000s      0.000w     39 calls
HF: DIIS                            :      0.000u      0.000s      0.005w     35 calls
HF: Form C                          :      0.000u      0.000s      0.001w     35 calls
Grad: V T Perturb                   :      0.000u      0.017s      0.007w      2 calls
Grad: S                             :      0.000u      0.000s      0.000w      2 calls
Grad: JK                            :      0.100u      0.000s      0.050w      2 calls
Grad: XC                            :      0.000u      0.000s      0.000w      2 calls
Hess: V                             :      0.083u      0.033s      0.070w      1 calls
Hess: T                             :      0.000u      0.000s      0.000w      1 calls
Hess: S                             :      0.000u      0.000s      0.000w      1 calls
Hess: JK                            :      0.050u      0.000s      0.027w      1 calls
Hess: XC                            :      0.000u      0.000s      0.000w      1 calls
JK: D                               :      0.000u      0.000s      0.000w      5 calls
JK: USO2AO                          :      0.000u      0.000s      0.000w      5 calls
JK: JK                              :      0.000u      0.000s      0.000w      5 calls
| PK computes JK                    :      0.000u      0.000s      0.000w      5 calls
JK: AO2USO                          :      0.000u      0.000s      0.000w      5 calls

**************************************************************************************

Host: adabbott

Timers On : Thu Aug 20 13:44:53 2020
Timers Off: Thu Aug 20 13:44:55 2020

Wall Time:        1.70 seconds

                                                       Time (seconds)
Module                                       User      System        Wall        Calls
Total PK formation time             :      0.150u      0.000s      0.098w      5 calls
HF: Form core H                     :      0.017u      0.000s      0.003w      4 calls
HF: Form S/X                        :      0.000u      0.000s      0.000w      4 calls
HF: Guess                           :      0.433u      0.000s      0.264w      4 calls
SAD Guess                           :      0.400u      0.000s      0.230w      4 calls
HF: Form G                          :      0.000u      0.000s      0.000w     12 calls
JK: D                               :      0.000u      0.000s      0.000w    115 calls
JK: USO2AO                          :      0.000u      0.000s      0.000w    115 calls
JK: JK                              :      0.000u      0.000s      0.001w    115 calls
PK computes JK                      :      0.000u      0.000s      0.001w    115 calls
JK: AO2USO                          :      0.000u      0.000s      0.000w    115 calls
HF: Form F                          :      0.000u      0.000s      0.000w     12 calls
HF: Form D                          :      0.000u      0.000s      0.000w     12 calls
HF: DIIS                            :      0.000u      0.000s      0.001w      8 calls
HF: Form C                          :      0.000u      0.000s      0.000w      8 calls
Grad: V T Perturb                   :      0.000u      0.000s      0.002w      2 calls
Grad: S                             :      0.000u      0.000s      0.000w      2 calls
Grad: JK                            :      0.067u      0.000s      0.041w      2 calls
Grad: XC                            :      0.000u      0.000s      0.000w      2 calls
Hess: V                             :      0.033u      0.000s      0.024w      1 calls
Hess: T                             :      0.000u      0.000s      0.000w      1 calls
Hess: S                             :      0.000u      0.000s      0.000w      1 calls
Hess: JK                            :      0.033u      0.000s      0.021w      1 calls
Hess: XC                            :      0.000u      0.000s      0.000w      1 calls

--------------------------------------------------------------------------------------
Total PK formation time             :      0.150u      0.000s      0.098w      5 calls
HF: Form core H                     :      0.017u      0.000s      0.003w      4 calls
HF: Form S/X                        :      0.000u      0.000s      0.000w      4 calls
HF: Guess                           :      0.433u      0.000s      0.264w      4 calls
| SAD Guess                         :      0.400u      0.000s      0.230w      4 calls
HF: Form G                          :      0.000u      0.000s      0.000w     12 calls
| JK: D                             :      0.000u      0.000s      0.000w     12 calls
| JK: USO2AO                        :      0.000u      0.000s      0.000w     12 calls
| JK: JK                            :      0.000u      0.000s      0.000w     12 calls
| | PK computes JK                  :      0.000u      0.000s      0.000w     12 calls
| JK: AO2USO                        :      0.000u      0.000s      0.000w     12 calls
HF: Form F                          :      0.000u      0.000s      0.000w     12 calls
HF: Form D                          :      0.000u      0.000s      0.000w     12 calls
HF: DIIS                            :      0.000u      0.000s      0.001w      8 calls
HF: Form C                          :      0.000u      0.000s      0.000w      8 calls
Grad: V T Perturb                   :      0.000u      0.000s      0.002w      2 calls
Grad: S                             :      0.000u      0.000s      0.000w      2 calls
Grad: JK                            :      0.067u      0.000s      0.041w      2 calls
Grad: XC                            :      0.000u      0.000s      0.000w      2 calls
Hess: V                             :      0.033u      0.000s      0.024w      1 calls
Hess: T                             :      0.000u      0.000s      0.000w      1 calls
Hess: S                             :      0.000u      0.000s      0.000w      1 calls
Hess: JK                            :      0.033u      0.000s      0.021w      1 calls
Hess: XC                            :      0.000u      0.000s      0.000w      1 calls
JK: D                               :      0.000u      0.000s      0.000w    103 calls
JK: USO2AO                          :      0.000u      0.000s      0.000w    103 calls
JK: JK                              :      0.000u      0.000s      0.001w    103 calls
| PK computes JK                    :      0.000u      0.000s      0.000w    103 calls
JK: AO2USO                          :      0.000u      0.000s      0.000w    103 calls

**************************************************************************************

Host: adabbott

Timers On : Mon Sep 21 14:04:04 2020
Timers Off: Mon Sep 21 14:22:55 2020

Wall Time:     1130.41 seconds

                                                       Time (seconds)
Module                                       User      System        Wall        Calls
Total PK formation time             :      2.433u      0.000s      1.430w     25 calls
HF: Form core H                     :      0.017u      0.000s      0.028w     24 calls
HF: Form S/X                        :      0.000u      0.000s      0.004w     24 calls
HF: Guess                           :      2.967u      0.000s      1.796w     24 calls
SAD Guess                           :      2.600u      0.000s      1.592w     24 calls
HF: Form G                          :      0.133u      0.000s      0.045w    342 calls
JK: D                               :      0.000u      0.000s      0.002w    351 calls
JK: USO2AO                          :      0.000u      0.000s      0.001w    351 calls
JK: JK                              :      0.183u      0.000s      0.077w    351 calls
PK computes JK                      :      0.167u      0.000s      0.076w    351 calls
JK: AO2USO                          :      0.000u      0.000s      0.001w    351 calls
HF: Form F                          :      0.000u      0.000s      0.002w    342 calls
HF: Form D                          :      0.000u      0.000s      0.002w    342 calls
HF: DIIS                            :      0.083u      0.000s      0.053w    318 calls
HF: Form C                          :      0.000u      0.000s      0.023w    318 calls
trans_ints                          :      0.217u      0.150s      0.258w     10 calls
Trans (OV|OV)                       :      0.033u      0.050s      0.078w     10 calls
Sort chem -> phys                   :      0.000u      0.017s      0.015w     10 calls
Sort (OV|OV) -> <OO|VV>             :      0.000u      0.000s      0.001w     10 calls
Sort (OO|OO) -> <OO|OO>             :      0.000u      0.000s      0.001w      9 calls
Sort (OO|OV) -> <OO|OV>             :      0.000u      0.000s      0.001w      9 calls
Sort (OO|VV) -> <OV|OV>             :      0.000u      0.000s      0.003w      9 calls
Sort (OV|VV) -> <OV|VV>             :      0.000u      0.017s      0.008w      9 calls
Trans OEI                           :      0.000u      0.000s      0.000w     10 calls
Build Denominators                  :      0.000u      0.000s      0.001w     10 calls
Trans (OO|OO)                       :      0.117u      0.033s      0.110w      9 calls
Trans (OO|OV)                       :      0.000u      0.000s      0.011w      9 calls
Trans (OO|VV)                       :      0.000u      0.017s      0.013w      9 calls
Trans (OV|VV)                       :      0.067u      0.033s      0.025w      9 calls
T2(1)                               :      0.033u      0.000s      0.019w     10 calls
MP2 Energy                          :      0.000u      0.000s      0.011w     10 calls
ccenergy                            :      5.317u      3.650s     10.259w     10 calls
F build                             :      0.517u      0.117s      0.371w    230 calls
Wmbej build                         :      0.917u      0.533s      0.868w    230 calls
C->Wmbej                            :      0.017u      0.033s      0.041w    230 calls
F->Wmbej                            :      0.350u      0.300s      0.398w    230 calls
E->Wmbej                            :      0.150u      0.083s      0.124w    230 calls
X->Wmbej                            :      0.350u      0.117s      0.271w    230 calls
Z                                   :      0.167u      0.050s      0.079w    230 calls
T2 Build                            :      1.683u      0.983s      1.619w    230 calls
BT2                                 :      0.717u      0.367s      0.685w    230 calls
ABCD:new                            :      1.083u      0.533s      1.019w    365 calls
ABCD:S                              :      0.150u      0.000s      0.081w    365 calls
ABCD:A                              :      0.067u      0.100s      0.077w    365 calls
ABCD:axpy                           :      0.717u      0.383s      0.743w    365 calls
FT2                                 :      0.033u      0.067s      0.068w    230 calls
WmbejT2                             :      0.350u      0.200s      0.267w    230 calls
CT2                                 :      0.333u      0.167s      0.319w    230 calls
cctriples                           :     10.850u      1.800s      7.751w     10 calls
ET_RHF                              :      0.883u      0.050s      0.569w     10 calls
malloc)                             :      0.033u      0.000s      0.045w   3087 calls
N7 Terms(ijk)                       :      1.267u      0.050s      0.691w   3087 calls
T3(d) Terms(ijk)                    :      0.917u      0.083s      0.604w   3087 calls
malloc                              :      0.483u      0.117s      0.427w 222093 calls
N7 Terms(abc)                       :      2.150u      0.500s      1.640w 109503 calls
T3(d) Terms(abc)                    :      1.300u      0.183s      0.873w 109503 calls
Grad: V T Perturb                   :      0.033u      0.000s      0.024w      2 calls
Grad: S                             :      0.000u      0.000s      0.002w      2 calls
Grad: JK                            :      0.517u      0.000s      0.311w      2 calls
Grad: XC                            :      0.000u      0.000s      0.000w      2 calls
G int                               :      0.017u      0.000s      0.008w      9 calls
OPDM                                :      0.017u      0.000s      0.000w      9 calls
TPDM OOVV                           :      0.000u      0.000s      0.009w      9 calls
TPDM REF                            :      0.000u      0.000s      0.003w      9 calls
TPDM CORR OPDM                      :      0.000u      0.000s      0.006w      9 calls
cchbar                              :      0.167u      0.267s      0.455w      9 calls
cclambda                            :      1.217u      0.617s      1.371w      9 calls
ccdensity                           :      0.783u      0.650s      1.098w      9 calls
Hess: V                             :      0.183u      0.067s      0.152w      1 calls
Hess: T                             :      0.017u      0.000s      0.004w      1 calls
Hess: S                             :      0.000u      0.000s      0.000w      1 calls
Hess: JK                            :      1.550u      0.000s      0.931w      1 calls
Hess: XC                            :      0.000u      0.000s      0.000w      1 calls

--------------------------------------------------------------------------------------
Total PK formation time             :      2.433u      0.000s      1.430w     25 calls
HF: Form core H                     :      0.017u      0.000s      0.028w     24 calls
HF: Form S/X                        :      0.000u      0.000s      0.004w     24 calls
HF: Guess                           :      2.967u      0.000s      1.796w     24 calls
| SAD Guess                         :      2.600u      0.000s      1.592w     24 calls
HF: Form G                          :      0.133u      0.000s      0.045w    342 calls
| JK: D                             :      0.000u      0.000s      0.002w    342 calls
| JK: USO2AO                        :      0.000u      0.000s      0.001w    342 calls
| JK: JK                            :      0.100u      0.000s      0.029w    342 calls
| | PK computes JK                  :      0.083u      0.000s      0.028w    342 calls
| JK: AO2USO                        :      0.000u      0.000s      0.001w    342 calls
HF: Form F                          :      0.000u      0.000s      0.002w    342 calls
HF: Form D                          :      0.000u      0.000s      0.002w    342 calls
HF: DIIS                            :      0.083u      0.000s      0.053w    318 calls
HF: Form C                          :      0.000u      0.000s      0.023w    318 calls
trans_ints                          :      0.217u      0.150s      0.258w     10 calls
| Trans (OV|OV)                     :      0.033u      0.050s      0.078w     10 calls
| Sort chem -> phys                 :      0.000u      0.017s      0.015w     10 calls
| | Sort (OV|OV) -> <OO|VV>         :      0.000u      0.000s      0.001w     10 calls
| | Sort (OO|OO) -> <OO|OO>         :      0.000u      0.000s      0.001w      9 calls
| | Sort (OO|OV) -> <OO|OV>         :      0.000u      0.000s      0.001w      9 calls
| | Sort (OO|VV) -> <OV|OV>         :      0.000u      0.000s      0.003w      9 calls
| | Sort (OV|VV) -> <OV|VV>         :      0.000u      0.017s      0.008w      9 calls
| Trans OEI                         :      0.000u      0.000s      0.000w     10 calls
| Build Denominators                :      0.000u      0.000s      0.001w     10 calls
| Trans (OO|OO)                     :      0.117u      0.033s      0.110w      9 calls
| Trans (OO|OV)                     :      0.000u      0.000s      0.011w      9 calls
| Trans (OO|VV)                     :      0.000u      0.017s      0.013w      9 calls
| Trans (OV|VV)                     :      0.067u      0.033s      0.025w      9 calls
T2(1)                               :      0.033u      0.000s      0.019w     10 calls
MP2 Energy                          :      0.000u      0.000s      0.011w     10 calls
ccenergy                            :      5.317u      3.650s     10.259w     10 calls
| F build                           :      0.517u      0.117s      0.371w    230 calls
| Wmbej build                       :      0.917u      0.533s      0.868w    230 calls
| | C->Wmbej                        :      0.017u      0.033s      0.041w    230 calls
| | F->Wmbej                        :      0.350u      0.300s      0.398w    230 calls
| | E->Wmbej                        :      0.150u      0.083s      0.124w    230 calls
| | X->Wmbej                        :      0.350u      0.117s      0.271w    230 calls
| Z                                 :      0.167u      0.050s      0.079w    230 calls
| T2 Build                          :      1.683u      0.983s      1.619w    230 calls
| | BT2                             :      0.717u      0.367s      0.685w    230 calls
| | | ABCD:new                      :      0.717u      0.367s      0.684w    230 calls
| | | | ABCD:S                      :      0.117u      0.000s      0.055w    230 calls
| | | | ABCD:A                      :      0.050u      0.067s      0.052w    230 calls
| | | | ABCD:axpy                   :      0.500u      0.250s      0.499w    230 calls
| | FT2                             :      0.033u      0.067s      0.068w    230 calls
| | WmbejT2                         :      0.350u      0.200s      0.267w    230 calls
| | CT2                             :      0.333u      0.167s      0.319w    230 calls
cctriples                           :     10.850u      1.800s      7.751w     10 calls
| ET_RHF                            :      0.883u      0.050s      0.569w     10 calls
| malloc)                           :      0.033u      0.000s      0.045w   3087 calls
| N7 Terms(ijk)                     :      1.267u      0.050s      0.691w   3087 calls
| T3(d) Terms(ijk)                  :      0.917u      0.083s      0.604w   3087 calls
| malloc                            :      0.483u      0.117s      0.427w 222093 calls
| N7 Terms(abc)                     :      2.150u      0.500s      1.640w 109503 calls
| T3(d) Terms(abc)                  :      1.300u      0.183s      0.873w 109503 calls
Grad: V T Perturb                   :      0.033u      0.000s      0.024w      2 calls
Grad: S                             :      0.000u      0.000s      0.002w      2 calls
Grad: JK                            :      0.517u      0.000s      0.311w      2 calls
Grad: XC                            :      0.000u      0.000s      0.000w      2 calls
G int                               :      0.017u      0.000s      0.008w      9 calls
OPDM                                :      0.017u      0.000s      0.000w      9 calls
TPDM OOVV                           :      0.000u      0.000s      0.009w      9 calls
TPDM REF                            :      0.000u      0.000s      0.003w      9 calls
TPDM CORR OPDM                      :      0.000u      0.000s      0.006w      9 calls
cchbar                              :      0.167u      0.267s      0.455w      9 calls
cclambda                            :      1.217u      0.617s      1.371w      9 calls
| ABCD:new                          :      0.367u      0.167s      0.335w    135 calls
| | ABCD:S                          :      0.033u      0.000s      0.026w    135 calls
| | ABCD:A                          :      0.017u      0.033s      0.025w    135 calls
| | ABCD:axpy                       :      0.217u      0.133s      0.244w    135 calls
ccdensity                           :      0.783u      0.650s      1.098w      9 calls
Hess: V                             :      0.183u      0.067s      0.152w      1 calls
Hess: T                             :      0.017u      0.000s      0.004w      1 calls
Hess: S                             :      0.000u      0.000s      0.000w      1 calls
Hess: JK                            :      1.550u      0.000s      0.931w      1 calls
Hess: XC                            :      0.000u      0.000s      0.000w      1 calls
JK: D                               :      0.000u      0.000s      0.000w      9 calls
JK: USO2AO                          :      0.000u      0.000s      0.000w      9 calls
JK: JK                              :      0.083u      0.000s      0.048w      9 calls
| PK computes JK                    :      0.083u      0.000s      0.048w      9 calls
JK: AO2USO                          :      0.000u      0.000s      0.000w      9 calls

**************************************************************************************

Host: adabbott

Timers On : Thu Oct  8 12:20:13 2020
Timers Off: Thu Oct  8 12:20:48 2020

Wall Time:       34.97 seconds

                                                       Time (seconds)
Module                                       User      System        Wall        Calls

--------------------------------------------------------------------------------------

**************************************************************************************

Host: adabbott

Timers On : Thu Oct  8 12:21:20 2020
Timers Off: Thu Oct  8 12:27:34 2020

Wall Time:      373.23 seconds

                                                       Time (seconds)
Module                                       User      System        Wall        Calls

--------------------------------------------------------------------------------------

**************************************************************************************

Host: adabbott

Timers On : Thu Oct  8 12:30:15 2020
Timers Off: Thu Oct  8 12:37:28 2020

Wall Time:      433.04 seconds

                                                       Time (seconds)
Module                                       User      System        Wall        Calls

--------------------------------------------------------------------------------------

**************************************************************************************

Host: adabbott

Timers On : Thu Oct  8 12:41:38 2020
Timers Off: Thu Oct  8 13:12:03 2020

Wall Time:     1825.40 seconds

                                                       Time (seconds)
Module                                       User      System        Wall        Calls

--------------------------------------------------------------------------------------

**************************************************************************************

Host: adabbott

Timers On : Thu Oct  8 13:14:02 2020
Timers Off: Thu Oct  8 13:18:12 2020

Wall Time:      249.40 seconds

                                                       Time (seconds)
Module                                       User      System        Wall        Calls

--------------------------------------------------------------------------------------

**************************************************************************************

Host: adabbott

Timers On : Thu Oct  8 13:18:47 2020
Timers Off: Thu Oct  8 13:22:40 2020

Wall Time:      233.03 seconds

                                                       Time (seconds)
Module                                       User      System        Wall        Calls

--------------------------------------------------------------------------------------

**************************************************************************************

Host: adabbott

Timers On : Thu Oct  8 13:23:23 2020
Timers Off: Thu Oct  8 13:27:02 2020

Wall Time:      218.94 seconds

                                                       Time (seconds)
Module                                       User      System        Wall        Calls

--------------------------------------------------------------------------------------

**************************************************************************************

Host: adabbott

Timers On : Thu Oct  8 13:46:02 2020
Timers Off: Thu Oct  8 14:10:39 2020

Wall Time:     1477.31 seconds

                                                       Time (seconds)
Module                                       User      System        Wall        Calls

--------------------------------------------------------------------------------------

**************************************************************************************

Host: adabbott

Timers On : Fri Oct  9 11:16:58 2020
Timers Off: Fri Oct  9 11:18:56 2020

Wall Time:      118.38 seconds

                                                       Time (seconds)
Module                                       User      System        Wall        Calls

--------------------------------------------------------------------------------------

**************************************************************************************

Host: adabbott

Timers On : Fri Oct  9 11:19:30 2020
Timers Off: Fri Oct  9 11:23:03 2020

Wall Time:      212.78 seconds

                                                       Time (seconds)
Module                                       User      System        Wall        Calls

--------------------------------------------------------------------------------------

**************************************************************************************

Host: adabbott

Timers On : Fri Oct  9 11:27:00 2020
Timers Off: Fri Oct  9 11:27:20 2020

Wall Time:       19.98 seconds

                                                       Time (seconds)
Module                                       User      System        Wall        Calls

--------------------------------------------------------------------------------------

**************************************************************************************

Host: adabbott

Timers On : Fri Oct  9 11:28:35 2020
Timers Off: Fri Oct  9 11:28:52 2020

Wall Time:       17.15 seconds

                                                       Time (seconds)
Module                                       User      System        Wall        Calls

--------------------------------------------------------------------------------------

**************************************************************************************

Host: adabbott

Timers On : Fri Oct  9 11:29:19 2020
Timers Off: Fri Oct  9 11:32:59 2020

Wall Time:      220.04 seconds

                                                       Time (seconds)
Module                                       User      System        Wall        Calls

--------------------------------------------------------------------------------------

**************************************************************************************

Host: adabbott

Timers On : Fri Oct  9 11:33:25 2020
Timers Off: Fri Oct  9 11:37:32 2020

Wall Time:      246.82 seconds

                                                       Time (seconds)
Module                                       User      System        Wall        Calls

--------------------------------------------------------------------------------------

**************************************************************************************

Host: adabbott

Timers On : Fri Oct  9 11:44:01 2020
Timers Off: Fri Oct  9 12:08:15 2020

Wall Time:     1453.60 seconds

                                                       Time (seconds)
Module                                       User      System        Wall        Calls

--------------------------------------------------------------------------------------

**************************************************************************************

Host: adabbott

Timers On : Fri Oct  9 12:10:41 2020
Timers Off: Fri Oct  9 12:34:55 2020

Wall Time:     1454.08 seconds

                                                       Time (seconds)
Module                                       User      System        Wall        Calls

--------------------------------------------------------------------------------------

**************************************************************************************

Host: adabbott

Timers On : Fri Oct  9 12:43:12 2020
Timers Off: Fri Oct  9 13:07:17 2020

Wall Time:     1445.04 seconds

                                                       Time (seconds)
Module                                       User      System        Wall        Calls

--------------------------------------------------------------------------------------

**************************************************************************************

Host: adabbott

Timers On : Fri Oct  9 13:11:35 2020
Timers Off: Fri Oct  9 13:34:31 2020

Wall Time:     1376.03 seconds

                                                       Time (seconds)
Module                                       User      System        Wall        Calls

--------------------------------------------------------------------------------------

**************************************************************************************

Host: adabbott

Timers On : Fri Oct  9 13:43:21 2020
Timers Off: Fri Oct  9 14:04:12 2020

Wall Time:     1250.59 seconds

                                                       Time (seconds)
Module                                       User      System        Wall        Calls

--------------------------------------------------------------------------------------

**************************************************************************************

Host: adabbott

Timers On : Mon Oct 12 14:52:39 2020
Timers Off: Mon Oct 12 14:52:48 2020

Wall Time:        8.34 seconds

                                                       Time (seconds)
Module                                       User      System        Wall        Calls

--------------------------------------------------------------------------------------

**************************************************************************************

Host: adabbott

Timers On : Mon Oct 12 14:53:07 2020
Timers Off: Mon Oct 12 14:53:15 2020

Wall Time:        8.57 seconds

                                                       Time (seconds)
Module                                       User      System        Wall        Calls

--------------------------------------------------------------------------------------

**************************************************************************************

Host: adabbott

Timers On : Mon Oct 12 14:53:22 2020
Timers Off: Mon Oct 12 14:53:31 2020

Wall Time:        8.51 seconds

                                                       Time (seconds)
Module                                       User      System        Wall        Calls

--------------------------------------------------------------------------------------

**************************************************************************************

Host: adabbott

Timers On : Mon Oct 12 14:53:47 2020
Timers Off: Mon Oct 12 14:53:56 2020

Wall Time:        8.49 seconds

                                                       Time (seconds)
Module                                       User      System        Wall        Calls

--------------------------------------------------------------------------------------

**************************************************************************************

Host: adabbott

Timers On : Mon Oct 12 14:54:22 2020
Timers Off: Mon Oct 12 14:54:31 2020

Wall Time:        8.45 seconds

                                                       Time (seconds)
Module                                       User      System        Wall        Calls

--------------------------------------------------------------------------------------

**************************************************************************************

Host: adabbott

Timers On : Mon Oct 12 14:55:35 2020
Timers Off: Mon Oct 12 14:55:44 2020

Wall Time:        8.52 seconds

                                                       Time (seconds)
Module                                       User      System        Wall        Calls

--------------------------------------------------------------------------------------

**************************************************************************************

Host: adabbott

Timers On : Mon Oct 12 14:55:51 2020
Timers Off: Mon Oct 12 14:56:00 2020

Wall Time:        8.54 seconds

                                                       Time (seconds)
Module                                       User      System        Wall        Calls

--------------------------------------------------------------------------------------

**************************************************************************************

Host: adabbott

Timers On : Mon Oct 12 14:56:10 2020
Timers Off: Mon Oct 12 14:56:19 2020

Wall Time:        9.19 seconds

                                                       Time (seconds)
Module                                       User      System        Wall        Calls
DFH: sparsity prep                  :      0.033u      0.000s      0.022w      2 calls
DFH: initialize()                   :      0.117u      0.000s      0.071w      2 calls
DFH: AO Construction                :      0.000u      0.000s      0.000w      2 calls
DFH: AO-Met. Contraction            :      0.000u      0.000s      0.000w      2 calls
HF: Form core H                     :      0.000u      0.000s      0.002w      2 calls
HF: Form S/X                        :      0.000u      0.000s      0.000w      2 calls
HF: Guess                           :      0.200u      0.000s      0.132w      2 calls
SAD Guess                           :      0.183u      0.000s      0.116w      2 calls
HF: Form G                          :      0.000u      0.000s      0.001w     12 calls
JK: D                               :      0.000u      0.000s      0.000w     12 calls
JK: USO2AO                          :      0.000u      0.000s      0.000w     12 calls
JK: JK                              :      0.000u      0.000s      0.001w     12 calls
DFH: compute_JK()                   :      0.000u      0.000s      0.001w     12 calls
DFH: Grabbing AOs                   :      0.000u      0.000s      0.000w     12 calls
DFH: compute_J                      :      0.000u      0.000s      0.000w     12 calls
DFH: compute_K                      :      0.000u      0.000s      0.000w     12 calls
JK: AO2USO                          :      0.000u      0.000s      0.000w     12 calls
HF: Form F                          :      0.000u      0.000s      0.000w     12 calls
HF: Form D                          :      0.000u      0.000s      0.000w     12 calls
HF: DIIS                            :      0.000u      0.000s      0.004w     10 calls
DIISManager::add_entry              :      0.000u      0.000s      0.000w     10 calls
DIISManager::extrapolate            :      0.000u      0.000s      0.000w     10 calls
bMatrix setup                       :      0.000u      0.000s      0.000w     10 calls
bMatrix pseudoinverse               :      0.000u      0.000s      0.000w     10 calls
New vector                          :      0.000u      0.000s      0.000w     10 calls
HF: Form C                          :      0.000u      0.000s      0.000w     10 calls
Grad: V T Perturb                   :      0.000u      0.000s      0.003w      1 calls
Grad: S                             :      0.000u      0.000s      0.000w      1 calls
Grad: JK                            :      0.117u      0.000s      0.066w      1 calls
JKGrad: Amn                         :      0.017u      0.000s      0.011w      1 calls
JKGrad: Awmn                        :      0.000u      0.000s      0.000w      1 calls
JKGrad: AB                          :      0.033u      0.000s      0.019w      1 calls
JKGrad: UV                          :      0.000u      0.000s      0.000w      1 calls
JKGrad: ABx                         :      0.033u      0.000s      0.012w      1 calls
JKGrad: Amnx                        :      0.017u      0.000s      0.012w      1 calls
Grad: XC                            :      0.000u      0.000s      0.000w      1 calls

--------------------------------------------------------------------------------------
DFH: sparsity prep                  :      0.033u      0.000s      0.022w      2 calls
DFH: initialize()                   :      0.117u      0.000s      0.071w      2 calls
| DFH: AO Construction              :      0.000u      0.000s      0.000w      2 calls
| DFH: AO-Met. Contraction          :      0.000u      0.000s      0.000w      2 calls
HF: Form core H                     :      0.000u      0.000s      0.002w      2 calls
HF: Form S/X                        :      0.000u      0.000s      0.000w      2 calls
HF: Guess                           :      0.200u      0.000s      0.132w      2 calls
| SAD Guess                         :      0.183u      0.000s      0.116w      2 calls
HF: Form G                          :      0.000u      0.000s      0.001w     12 calls
| JK: D                             :      0.000u      0.000s      0.000w     12 calls
| JK: USO2AO                        :      0.000u      0.000s      0.000w     12 calls
| JK: JK                            :      0.000u      0.000s      0.001w     12 calls
| | DFH: compute_JK()               :      0.000u      0.000s      0.001w     12 calls
| | | DFH: Grabbing AOs             :      0.000u      0.000s      0.000w     12 calls
| | | DFH: compute_J                :      0.000u      0.000s      0.000w     12 calls
| | | DFH: compute_K                :      0.000u      0.000s      0.000w     12 calls
| JK: AO2USO                        :      0.000u      0.000s      0.000w     12 calls
HF: Form F                          :      0.000u      0.000s      0.000w     12 calls
HF: Form D                          :      0.000u      0.000s      0.000w     12 calls
HF: DIIS                            :      0.000u      0.000s      0.004w     10 calls
| DIISManager::add_entry            :      0.000u      0.000s      0.000w     10 calls
| DIISManager::extrapolate          :      0.000u      0.000s      0.000w     10 calls
| | bMatrix setup                   :      0.000u      0.000s      0.000w     10 calls
| | bMatrix pseudoinverse           :      0.000u      0.000s      0.000w     10 calls
| | New vector                      :      0.000u      0.000s      0.000w     10 calls
HF: Form C                          :      0.000u      0.000s      0.000w     10 calls
Grad: V T Perturb                   :      0.000u      0.000s      0.003w      1 calls
Grad: S                             :      0.000u      0.000s      0.000w      1 calls
Grad: JK                            :      0.117u      0.000s      0.066w      1 calls
| JKGrad: Amn                       :      0.017u      0.000s      0.011w      1 calls
| JKGrad: Awmn                      :      0.000u      0.000s      0.000w      1 calls
| JKGrad: AB                        :      0.033u      0.000s      0.019w      1 calls
| JKGrad: UV                        :      0.000u      0.000s      0.000w      1 calls
| JKGrad: ABx                       :      0.033u      0.000s      0.012w      1 calls
| JKGrad: Amnx                      :      0.017u      0.000s      0.012w      1 calls
Grad: XC                            :      0.000u      0.000s      0.000w      1 calls

**************************************************************************************

Host: adabbott

Timers On : Mon Oct 12 14:56:36 2020
Timers Off: Mon Oct 12 14:56:45 2020

Wall Time:        9.03 seconds

                                                       Time (seconds)
Module                                       User      System        Wall        Calls
Total PK formation time             :      0.067u      0.000s      0.044w      2 calls
HF: Form core H                     :      0.000u      0.000s      0.002w      2 calls
HF: Form S/X                        :      0.000u      0.000s      0.000w      2 calls
HF: Guess                           :      0.217u      0.000s      0.133w      2 calls
SAD Guess                           :      0.183u      0.000s      0.116w      2 calls
HF: Form G                          :      0.000u      0.000s      0.001w     20 calls
JK: D                               :      0.000u      0.000s      0.000w     20 calls
JK: USO2AO                          :      0.000u      0.000s      0.000w     20 calls
JK: JK                              :      0.000u      0.000s      0.000w     20 calls
PK computes JK                      :      0.000u      0.000s      0.000w     20 calls
JK: AO2USO                          :      0.000u      0.000s      0.000w     20 calls
HF: Form F                          :      0.000u      0.000s      0.000w     20 calls
HF: Form D                          :      0.000u      0.000s      0.000w     20 calls
HF: DIIS                            :      0.000u      0.000s      0.002w     18 calls
HF: Form C                          :      0.000u      0.000s      0.000w     18 calls
Grad: V T Perturb                   :      0.000u      0.000s      0.003w      1 calls
Grad: S                             :      0.000u      0.000s      0.000w      1 calls
Grad: JK                            :      0.050u      0.000s      0.023w      1 calls
Grad: XC                            :      0.000u      0.000s      0.000w      1 calls

--------------------------------------------------------------------------------------
Total PK formation time             :      0.067u      0.000s      0.044w      2 calls
HF: Form core H                     :      0.000u      0.000s      0.002w      2 calls
HF: Form S/X                        :      0.000u      0.000s      0.000w      2 calls
HF: Guess                           :      0.217u      0.000s      0.133w      2 calls
| SAD Guess                         :      0.183u      0.000s      0.116w      2 calls
HF: Form G                          :      0.000u      0.000s      0.001w     20 calls
| JK: D                             :      0.000u      0.000s      0.000w     20 calls
| JK: USO2AO                        :      0.000u      0.000s      0.000w     20 calls
| JK: JK                            :      0.000u      0.000s      0.000w     20 calls
| | PK computes JK                  :      0.000u      0.000s      0.000w     20 calls
[...]
ET_RHF                              :      1.200u      0.183s      0.799w     15 calls
malloc)                             :      0.150u      0.000s      0.073w   5145 calls
N7 Terms(ijk)                       :      1.800u      0.067s      1.131w   5145 calls
T3(d) Terms(ijk)                    :      1.433u      0.117s      0.999w   5145 calls
malloc                              :      0.733u      0.167s      0.636w 370155 calls
N7 Terms(abc)                       :      3.517u      0.867s      2.609w 182505 calls
T3(d) Terms(abc)                    :      1.867u      0.533s      1.433w 182505 calls
cchbar                              :      0.367u      0.333s      0.624w     15 calls
cclambda                            :      1.733u      1.250s      2.125w     15 calls
ccdensity                           :      1.100u      1.117s      1.440w     15 calls

--------------------------------------------------------------------------------------
Total PK formation time             :      4.300u      0.000s      2.579w     45 calls
HF: Form core H                     :      0.050u      0.000s      0.039w     45 calls
HF: Form S/X                        :      0.000u      0.000s      0.007w     45 calls
HF: Guess                           :      5.533u      0.033s      3.293w     45 calls
| SAD Guess                         :      4.917u      0.017s      2.908w     45 calls
HF: Form G                          :      0.117u      0.000s      0.075w    634 calls
| JK: D                             :      0.000u      0.000s      0.003w    634 calls
| JK: USO2AO                        :      0.000u      0.000s      0.002w    634 calls
| JK: JK                            :      0.083u      0.000s      0.049w    634 calls
| | PK computes JK                  :      0.067u      0.000s      0.047w    634 calls
| JK: AO2USO                        :      0.000u      0.000s      0.001w    634 calls
HF: Form F                          :      0.000u      0.000s      0.004w    634 calls
HF: Form D                          :      0.017u      0.000s      0.003w    634 calls
HF: DIIS                            :      0.150u      0.017s      0.095w    589 calls
HF: Form C                          :      0.050u      0.000s      0.042w    589 calls
Grad: V T Perturb                   :      0.300u      0.000s      0.163w     15 calls
Grad: S                             :      0.017u      0.000s      0.010w     15 calls
Grad: JK                            :      3.817u      0.000s      2.312w     15 calls
Grad: XC                            :      0.000u      0.000s      0.000w     15 calls
trans_ints                          :      0.333u      0.117s      0.301w     15 calls
| Trans (OO|OO)                     :      0.217u      0.067s      0.148w     15 calls
| Trans (OO|OV)                     :      0.000u      0.000s      0.008w     15 calls
| Trans (OO|VV)                     :      0.000u      0.000s      0.011w     15 calls
| Trans (OV|OV)                     :      0.050u      0.033s      0.076w     15 calls
| Trans (OV|VV)                     :      0.017u      0.017s      0.031w     15 calls
| Sort chem -> phys                 :      0.033u      0.000s      0.021w     15 calls
| | Sort (OO|OO) -> <OO|OO>         :      0.000u      0.000s      0.002w     15 calls
| | Sort (OO|OV) -> <OO|OV>         :      0.000u      0.000s      0.002w     15 calls
| | Sort (OV|OV) -> <OO|VV>         :      0.000u      0.000s      0.002w     15 calls
| | Sort (OO|VV) -> <OV|OV>         :      0.000u      0.000s      0.004w     15 calls
| | Sort (OV|VV) -> <OV|VV>         :      0.033u      0.000s      0.011w     15 calls
| Trans OEI                         :      0.000u      0.000s      0.000w     15 calls
| Build Denominators                :      0.000u      0.000s      0.002w     15 calls
T2(1)                               :      0.017u      0.000s      0.018w     15 calls
MP2 Energy                          :      0.000u      0.017s      0.010w     15 calls
G int                               :      0.017u      0.017s      0.009w     15 calls
OPDM                                :      0.000u      0.000s      0.000w     15 calls
TPDM OOVV                           :      0.000u      0.017s      0.008w     15 calls
TPDM REF                            :      0.000u      0.000s      0.003w     15 calls
TPDM CORR OPDM                      :      0.000u      0.000s      0.008w     15 calls
ccenergy                            :      6.233u      4.500s      9.580w     15 calls
| F build                           :      0.350u      0.217s      0.411w    345 calls
| Wmbej build                       :      1.033u      0.517s      1.004w    345 calls
| | C->Wmbej                        :      0.033u      0.017s      0.047w    345 calls
| | F->Wmbej                        :      0.417u      0.233s      0.444w    345 calls
| | E->Wmbej                        :      0.217u      0.050s      0.143w    345 calls
| | X->Wmbej                        :      0.300u      0.183s      0.331w    345 calls
| Z                                 :      0.083u      0.000s      0.095w    345 calls
| T2 Build                          :      2.617u      0.983s      2.065w    345 calls
| | BT2                             :      1.200u      0.417s      0.841w    345 calls
| | | ABCD:new                      :      1.200u      0.417s      0.839w    345 calls
| | | | ABCD:S                      :      0.133u      0.067s      0.068w    345 calls
| | | | ABCD:A                      :      0.117u      0.017s      0.065w    345 calls
| | | | ABCD:axpy                   :      0.900u      0.267s      0.611w    345 calls
| | FT2                             :      0.083u      0.017s      0.086w    345 calls
| | WmbejT2                         :      0.483u      0.133s      0.351w    345 calls
| | CT2                             :      0.450u      0.250s      0.435w    345 calls
cctriples                           :     17.200u      2.883s     12.219w     15 calls
| ET_RHF                            :      1.200u      0.183s      0.799w     15 calls
| malloc)                           :      0.150u      0.000s      0.073w   5145 calls
| N7 Terms(ijk)                     :      1.800u      0.067s      1.131w   5145 calls
| T3(d) Terms(ijk)                  :      1.433u      0.117s      0.999w   5145 calls
| malloc                            :      0.733u      0.167s      0.636w 370155 calls
| N7 Terms(abc)                     :      3.517u      0.867s      2.609w 182505 calls
| T3(d) Terms(abc)                  :      1.867u      0.533s      1.433w 182505 calls
cchbar                              :      0.367u      0.333s      0.624w     15 calls
cclambda                            :      1.733u      1.250s      2.125w     15 calls
| ABCD:new                          :      0.583u      0.317s      0.538w    225 calls
| | ABCD:S                          :      0.033u      0.000s      0.044w    225 calls
| | ABCD:A                          :      0.033u      0.033s      0.041w    225 calls
| | ABCD:axpy                       :      0.450u      0.250s      0.389w    225 calls
ccdensity                           :      1.100u      1.117s      1.440w     15 calls

**************************************************************************************

Host: adabbott

Timers On : Fri Dec  4 14:36:53 2020
Timers Off: Fri Dec  4 14:42:05 2020

Wall Time:      312.38 seconds

                                                       Time (seconds)
Module                                       User      System        Wall        Calls
Total PK formation time             :      1.583u      0.017s      1.009w     45 calls
HF: Form core H                     :      0.017u      0.000s      0.033w     45 calls
HF: Form S/X                        :      0.017u      0.000s      0.004w     45 calls
HF: Guess                           :      5.100u      0.017s      3.037w     45 calls
SAD Guess                           :      4.417u      0.017s      2.660w     45 calls
HF: Form G                          :      0.000u      0.000s      0.018w    540 calls
JK: D                               :      0.000u      0.000s      0.002w    540 calls
JK: USO2AO                          :      0.000u      0.000s      0.001w    540 calls
JK: JK                              :      0.000u      0.000s      0.006w    540 calls
PK computes JK                      :      0.000u      0.000s      0.004w    540 calls
JK: AO2USO                          :      0.000u      0.000s      0.001w    540 calls
HF: Form F                          :      0.000u      0.000s      0.003w    540 calls
HF: Form D                          :      0.000u      0.000s      0.002w    540 calls
HF: DIIS                            :      0.050u      0.000s      0.067w    495 calls
HF: Form C                          :      0.000u      0.000s      0.012w    495 calls
Grad: V T Perturb                   :      0.100u      0.000s      0.042w     15 calls
Grad: S                             :      0.000u      0.000s      0.000w     15 calls
Grad: JK                            :      0.583u      0.000s      0.355w     15 calls
Grad: XC                            :      0.000u      0.000s      0.000w     15 calls
trans_ints                          :      0.000u      0.017s      0.076w     15 calls
Trans (OO|OO)                       :      0.000u      0.000s      0.035w     15 calls
Trans (OO|OV)                       :      0.000u      0.000s      0.007w     15 calls
Trans (OO|VV)                       :      0.000u      0.000s      0.006w     15 calls
Trans (OV|OV)                       :      0.000u      0.017s      0.016w     15 calls
Trans (OV|VV)                       :      0.000u      0.000s      0.006w     15 calls
Sort chem -> phys                   :      0.000u      0.000s      0.002w     15 calls
Sort (OO|OO) -> <OO|OO>             :      0.000u      0.000s      0.000w     15 calls
Sort (OO|OV) -> <OO|OV>             :      0.000u      0.000s      0.000w     15 calls
Sort (OV|OV) -> <OO|VV>             :      0.000u      0.000s      0.000w     15 calls
Sort (OO|VV) -> <OV|OV>             :      0.000u      0.000s      0.000w     15 calls
Sort (OV|VV) -> <OV|VV>             :      0.000u      0.000s      0.000w     15 calls
Trans OEI                           :      0.000u      0.000s      0.000w     15 calls
Build Denominators                  :      0.000u      0.000s      0.000w     15 calls
T2(1)                               :      0.000u      0.000s      0.007w     15 calls
MP2 Energy                          :      0.000u      0.000s      0.006w     15 calls
G int                               :      0.000u      0.000s      0.006w     15 calls
OPDM                                :      0.000u      0.000s      0.000w     15 calls
TPDM OOVV                           :      0.017u      0.017s      0.006w     15 calls
TPDM REF                            :      0.000u      0.000s      0.003w     15 calls
TPDM CORR OPDM                      :      0.000u      0.000s      0.003w     15 calls
ccenergy                            :      1.783u      2.117s      5.086w     15 calls
F build                             :      0.167u      0.050s      0.059w    345 calls
Wmbej build                         :      0.117u      0.000s      0.060w    345 calls
C->Wmbej                            :      0.033u      0.000s      0.005w    345 calls
F->Wmbej                            :      0.050u      0.000s      0.023w    345 calls
E->Wmbej                            :      0.017u      0.000s      0.009w    345 calls
X->Wmbej                            :      0.000u      0.000s      0.017w    345 calls
Z                                   :      0.000u      0.000s      0.004w    345 calls
T2 Build                            :      0.167u      0.117s      0.198w    345 calls
BT2                                 :      0.083u      0.067s      0.103w    345 calls
ABCD:new                            :      0.117u      0.083s      0.162w    555 calls
ABCD:S                              :      0.000u      0.000s      0.007w    555 calls
ABCD:A                              :      0.000u      0.000s      0.006w    555 calls
ABCD:axpy                           :      0.100u      0.067s      0.131w    555 calls
FT2                                 :      0.000u      0.000s      0.006w    345 calls
WmbejT2                             :      0.033u      0.017s      0.021w    345 calls
CT2                                 :      0.017u      0.033s      0.040w    345 calls
cctriples                           :      0.217u      0.250s      0.382w     15 calls
ET_RHF                              :      0.000u      0.000s      0.003w     15 calls
malloc)                             :      0.000u      0.000s      0.000w     15 calls
N7 Terms(ijk)                       :      0.000u      0.000s      0.001w     15 calls
T3(d) Terms(ijk)                    :      0.000u      0.000s      0.000w     15 calls
malloc                              :      0.017u      0.033s      0.037w  21885 calls
N7 Terms(abc)                       :      0.033u      0.017s      0.036w  10935 calls
T3(d) Terms(abc)                    :      0.017u      0.017s      0.018w  10935 calls
cchbar                              :      0.067u      0.100s      0.231w     15 calls
cclambda                            :      0.183u      0.217s      0.389w     15 calls
ccdensity                           :      0.150u      0.200s      0.323w     15 calls

--------------------------------------------------------------------------------------
Total PK formation time             :      1.583u      0.017s      1.009w     45 calls
HF: Form core H                     :      0.017u      0.000s      0.033w     45 calls
HF: Form S/X                        :      0.017u      0.000s      0.004w     45 calls
HF: Guess                           :      5.100u      0.017s      3.037w     45 calls
| SAD Guess                         :      4.417u      0.017s      2.660w     45 calls
HF: Form G                          :      0.000u      0.000s      0.018w    540 calls
| JK: D                             :      0.000u      0.000s      0.002w    540 calls
| JK: USO2AO                        :      0.000u      0.000s      0.001w    540 calls
| JK: JK                            :      0.000u      0.000s      0.006w    540 calls
| | PK computes JK                  :      0.000u      0.000s      0.004w    540 calls
| JK: AO2USO                        :      0.000u      0.000s      0.001w    540 calls
HF: Form F                          :      0.000u      0.000s      0.003w    540 calls
HF: Form D                          :      0.000u      0.000s      0.002w    540 calls
HF: DIIS                            :      0.050u      0.000s      0.067w    495 calls
HF: Form C                          :      0.000u      0.000s      0.012w    495 calls
Grad: V T Perturb                   :      0.100u      0.000s      0.042w     15 calls
Grad: S                             :      0.000u      0.000s      0.000w     15 calls
Grad: JK                            :      0.583u      0.000s      0.355w     15 calls
Grad: XC                            :      0.000u      0.000s      0.000w     15 calls
trans_ints                          :      0.000u      0.017s      0.076w     15 calls
| Trans (OO|OO)                     :      0.000u      0.000s      0.035w     15 calls
| Trans (OO|OV)                     :      0.000u      0.000s      0.007w     15 calls
| Trans (OO|VV)                     :      0.000u      0.000s      0.006w     15 calls
| Trans (OV|OV)                     :      0.000u      0.017s      0.016w     15 calls
| Trans (OV|VV)                     :      0.000u      0.000s      0.006w     15 calls
| Sort chem -> phys                 :      0.000u      0.000s      0.002w     15 calls
| | Sort (OO|OO) -> <OO|OO>         :      0.000u      0.000s      0.000w     15 calls
| | Sort (OO|OV) -> <OO|OV>         :      0.000u      0.000s      0.000w     15 calls
| | Sort (OV|OV) -> <OO|VV>         :      0.000u      0.000s      0.000w     15 calls
| | Sort (OO|VV) -> <OV|OV>         :      0.000u      0.000s      0.000w     15 calls
| | Sort (OV|VV) -> <OV|VV>         :      0.000u      0.000s      0.000w     15 calls
| Trans OEI                         :      0.000u      0.000s      0.000w     15 calls
| Build Denominators                :      0.000u      0.000s      0.000w     15 calls
T2(1)                               :      0.000u      0.000s      0.007w     15 calls
MP2 Energy                          :      0.000u      0.000s      0.006w     15 calls
G int                               :      0.000u      0.000s      0.006w     15 calls
OPDM                                :      0.000u      0.000s      0.000w     15 calls
TPDM OOVV                           :      0.017u      0.017s      0.006w     15 calls
TPDM REF                            :      0.000u      0.000s      0.003w     15 calls
TPDM CORR OPDM                      :      0.000u      0.000s      0.003w     15 calls
ccenergy                            :      1.783u      2.117s      5.086w     15 calls
| F build                           :      0.167u      0.050s      0.059w    345 calls
| Wmbej build                       :      0.117u      0.000s      0.060w    345 calls
| | C->Wmbej                        :      0.033u      0.000s      0.005w    345 calls
| | F->Wmbej                        :      0.050u      0.000s      0.023w    345 calls
| | E->Wmbej                        :      0.017u      0.000s      0.009w    345 calls
| | X->Wmbej                        :      0.000u      0.000s      0.017w    345 calls
| Z                                 :      0.000u      0.000s      0.004w    345 calls
| T2 Build                          :      0.167u      0.117s      0.198w    345 calls
| | BT2                             :      0.083u      0.067s      0.103w    345 calls
| | | ABCD:new                      :      0.083u      0.050s      0.102w    345 calls
| | | | ABCD:S                      :      0.000u      0.000s      0.005w    345 calls
| | | | ABCD:A                      :      0.000u      0.000s      0.004w    345 calls
| | | | ABCD:axpy                   :      0.067u      0.050s      0.083w    345 calls
| | FT2                             :      0.000u      0.000s      0.006w    345 calls
| | WmbejT2                         :      0.033u      0.017s      0.021w    345 calls
| | CT2                             :      0.017u      0.033s      0.040w    345 calls
cctriples                           :      0.217u      0.250s      0.382w     15 calls
| ET_RHF                            :      0.000u      0.000s      0.003w     15 calls
| malloc)                           :      0.000u      0.000s      0.000w     15 calls
| N7 Terms(ijk)                     :      0.000u      0.000s      0.001w     15 calls
| T3(d) Terms(ijk)                  :      0.000u      0.000s      0.000w     15 calls
| malloc                            :      0.017u      0.033s      0.037w  21885 calls
| N7 Terms(abc)                     :      0.033u      0.017s      0.036w  10935 calls
| T3(d) Terms(abc)                  :      0.017u      0.017s      0.018w  10935 calls
cchbar                              :      0.067u      0.100s      0.231w     15 calls
cclambda                            :      0.183u      0.217s      0.389w     15 calls
| ABCD:new                          :      0.033u      0.033s      0.060w    210 calls
| | ABCD:S                          :      0.000u      0.000s      0.003w    210 calls
| | ABCD:A                          :      0.000u      0.000s      0.002w    210 calls
| | ABCD:axpy                       :      0.033u      0.017s      0.048w    210 calls
ccdensity                           :      0.150u      0.200s      0.323w     15 calls

**************************************************************************************
