
    -----------------------------------------------------------------------
          Psi4: An Open-Source Ab Initio Electronic Structure Package
                               Psi4 1.3.2 release

                         Git: Rev {HEAD} ecbda83 


    R. M. Parrish, L. A. Burns, D. G. A. Smith, A. C. Simmonett,
    A. E. DePrince III, E. G. Hohenstein, U. Bozkaya, A. Yu. Sokolov,
    R. Di Remigio, R. M. Richard, J. F. Gonthier, A. M. James,
    H. R. McAlexander, A. Kumar, M. Saitow, X. Wang, B. P. Pritchard,
    P. Verma, H. F. Schaefer III, K. Patkowski, R. A. King, E. F. Valeev,
    F. A. Evangelista, J. M. Turney, T. D. Crawford, and C. D. Sherrill,
    J. Chem. Theory Comput. 13(7) pp 3185--3197 (2017).
    (doi: 10.1021/acs.jctc.7b00174)


                         Additional Contributions by
    P. Kraus, H. Kruse, M. H. Lechner, M. C. Schieber, R. A. Shaw,
    A. Alenaizan, R. Galvelis, Z. L. Glick, S. Lehtola, and J. P. Misiewicz

    -----------------------------------------------------------------------


    Psi4 started on: Friday, 19 July 2019 05:55PM

    Process ID: 20203
    Host:       adabbott
    PSIDATADIR: /home/adabbott/anaconda3/envs/peslearn/share/psi4
    Memory:     500.0 MiB
    Threads:    1
    
  ==> Input File <==

--------------------------------------------------------------------------
# density fitted hartree fock 
molecule h2o {
0 1
H 0.0000000000 0.0000000000 0.9000000000
H 0.0000000000 0.8770464461 -0.3192188004
O 0.0000000000 0.0000000000 0.0000000000
}

set scf_type pk
set basis 6-31g
gradient('hf')

--------------------------------------------------------------------------
gradient() will perform analytic gradient computation.

*** tstart() called on adabbott
*** at Fri Jul 19 17:55:46 2019

   => Loading Basis Set <=

    Name: 6-31G
    Role: ORBITAL
    Keyword: BASIS
    atoms 1-2 entry H          line    26 file /home/adabbott/anaconda3/envs/peslearn/share/psi4/basis/6-31g.gbs 
    atoms 3   entry O          line   117 file /home/adabbott/anaconda3/envs/peslearn/share/psi4/basis/6-31g.gbs 


         ---------------------------------------------------------
                                   SCF
               by Justin Turney, Rob Parrish, Andy Simmonett
                          and Daniel G. A. Smith
                              RHF Reference
                        1 Threads,    500 MiB Core
         ---------------------------------------------------------

  ==> Geometry <==

    Molecular point group: cs
    Full point group: Cs

    Geometry (in Angstrom), charge = 0, multiplicity = 1:

       Center              X                  Y                   Z               Mass       
    ------------   -----------------  -----------------  -----------------  -----------------
         H            0.049077270942    -0.867500972819     0.000000000000     1.007825032230
         H           -0.827969175158     0.351717827581     0.000000000000     1.007825032230
         O            0.049077270942     0.032499027181     0.000000000000    15.994914619570

  Running in cs symmetry.

  Rotational constants: A =     34.13337  B =     14.81354  C =     10.33029 [cm^-1]
  Rotational constants: A = 1023292.63085  B = 444098.66544  C = 309694.41679 [MHz]
  Nuclear repulsion =    9.591940497840369

  Charge       = 0
  Multiplicity = 1
  Electrons    = 10
  Nalpha       = 5
  Nbeta        = 5

  ==> Algorithm <==

  SCF Algorithm Type is PK.
  DIIS enabled.
  MOM disabled.
  Fractional occupation disabled.
  Guess Type is SAD.
  Energy threshold   = 1.00e-08
  Density threshold  = 1.00e-08
  Integral threshold = 0.00e+00

  ==> Primary Basis <==

  Basis Set: 6-31G
    Blend: 6-31G
    Number of shells: 9
    Number of basis function: 13
    Number of Cartesian functions: 13
    Spherical Harmonics?: false
    Max angular momentum: 1

  ==> Pre-Iterations <==

   -------------------------------------------------------
    Irrep   Nso     Nmo     Nalpha   Nbeta   Ndocc  Nsocc
   -------------------------------------------------------
     A'        11      11       0       0       0       0
     A"         2       2       0       0       0       0
   -------------------------------------------------------
    Total      13      13       5       5       5       0
   -------------------------------------------------------

  ==> Integral Setup <==

  Using in-core PK algorithm.
   Calculation information:
      Number of atoms:                   3
      Number of AO shells:               9
      Number of primitives:             22
      Number of atomic orbitals:        13
      Number of basis functions:        13

      Integral cutoff                 1.00e-12
      Number of threads:                 1

  Performing in-core PK
  Using 8372 doubles for integral storage.
  We computed 1035 shell quartets total.
  Whereas there are 1035 unique shell quartets.

  ==> DiskJK: Disk-Based J/K Matrices <==

    J tasked:                  Yes
    K tasked:                  Yes
    wK tasked:                  No
    Memory [MiB]:              375
    Schwarz Cutoff:          1E-12

    OpenMP threads:              1

  Minimum eigenvalue in the overlap matrix is 6.3560660425E-02.
  Using Symmetric Orthogonalization.

  SCF Guess: Superposition of Atomic Densities via on-the-fly atomic UHF.

  ==> Iterations <==

                        Total Energy        Delta E     RMS |[F,P]|

   @RHF iter SAD:   -75.57766298621941   -7.55777e+01   0.00000e+00 
   @RHF iter   1:   -75.91127156704290   -3.33609e-01   3.64202e-02 DIIS
   @RHF iter   2:   -75.96466654309545   -5.33950e-02   1.99239e-02 DIIS
   @RHF iter   3:   -75.98167637753511   -1.70098e-02   1.65805e-03 DIIS
   @RHF iter   4:   -75.98194493748208   -2.68560e-04   2.55794e-04 DIIS
   @RHF iter   5:   -75.98195289457774   -7.95710e-06   4.31150e-05 DIIS
   @RHF iter   6:   -75.98195321689713   -3.22319e-07   8.04058e-06 DIIS
   @RHF iter   7:   -75.98195322858842   -1.16913e-08   1.41287e-06 DIIS
   @RHF iter   8:   -75.98195322891549   -3.27063e-10   2.29262e-07 DIIS
   @RHF iter   9:   -75.98195322892104   -5.55644e-12   2.28372e-08 DIIS
   @RHF iter  10:   -75.98195322892113   -8.52651e-14   2.60271e-09 DIIS
  Energy and wave function converged.


  ==> Post-Iterations <==

    Orbital Energies [Eh]
    ---------------------

    Doubly Occupied:                                                      

       1Ap   -20.548357     2Ap    -1.373124     3Ap    -0.743919  
       4Ap    -0.555983     1App   -0.501403  

    Virtual:                                                              

       5Ap     0.214301     6Ap     0.310684     7Ap     1.106398  
       2App    1.166225     8Ap     1.197161     9Ap     1.224911  
      10Ap     1.403243    11Ap     1.682040  

    Final Occupation by Irrep:
             Ap   App 
    DOCC [     4,    1 ]

  @RHF Final Energy:   -75.98195322892113

   => Energetics <=

    Nuclear Repulsion Energy =              9.5919404978403691
    One-Electron Energy =                -123.7022150649520000
    Two-Electron Energy =                  38.1283213381905028
    Total Energy =                        -75.9819532289211281

Computation Completed


Properties will be evaluated at   0.000000,   0.000000,   0.000000 [a0]

Properties computed using the SCF density matrix

  Nuclear Dipole Moment: [e a0]
     X:    -0.7300      Y:    -0.4834      Z:     0.0000

  Electronic Dipole Moment: [e a0]
     X:    -0.0857      Y:    -0.0764      Z:     0.0000

  Dipole Moment: [e a0]
     X:    -0.8156      Y:    -0.5598      Z:     0.0000     Total:     0.9892

  Dipole Moment: [D]
     X:    -2.0731      Y:    -1.4228      Z:     0.0000     Total:     2.5143


*** tstop() called on adabbott at Fri Jul 19 17:55:47 2019
Module time:
	user time   =       0.33 seconds =       0.01 minutes
	system time =       0.00 seconds =       0.00 minutes
	total time  =          1 seconds =       0.02 minutes
Total time:
	user time   =       0.33 seconds =       0.01 minutes
	system time =       0.00 seconds =       0.00 minutes
	total time  =          1 seconds =       0.02 minutes

*** tstart() called on adabbott
*** at Fri Jul 19 17:55:47 2019


         ------------------------------------------------------------
                                   SCF GRAD                          
                          Rob Parrish, Justin Turney,                
                       Andy Simmonett, and Alex Sokolov              
         ------------------------------------------------------------

  ==> Geometry <==

    Molecular point group: cs
    Full point group: Cs

    Geometry (in Angstrom), charge = 0, multiplicity = 1:

       Center              X                  Y                   Z               Mass       
    ------------   -----------------  -----------------  -----------------  -----------------
         H            0.049077270942    -0.867500972819     0.000000000000     1.007825032230
         H           -0.827969175158     0.351717827581     0.000000000000     1.007825032230
         O            0.049077270942     0.032499027181     0.000000000000    15.994914619570

  Nuclear repulsion =    9.591940497840369

  ==> Basis Set <==

  Basis Set: 6-31G
    Blend: 6-31G
    Number of shells: 9
    Number of basis function: 13
    Number of Cartesian functions: 13
    Spherical Harmonics?: false
    Max angular momentum: 1

  ==> DirectJKGrad: Integral-Direct SCF Gradients <==

    Gradient:                    1
    J tasked:                  Yes
    K tasked:                  Yes
    wK tasked:                  No
    Integrals threads:           1
    Schwarz Cutoff:          0E+00


  -Total Gradient:
     Atom            X                  Y                   Z
    ------   -----------------  -----------------  -----------------
       1       -0.005782367313     0.067306007514     0.000000000000
       2        0.016546838022    -0.011956255977     0.000000000000
       3       -0.010764470709    -0.055349751537     0.000000000000


*** tstop() called on adabbott at Fri Jul 19 17:55:47 2019
Module time:
	user time   =       0.05 seconds =       0.00 minutes
	system time =       0.00 seconds =       0.00 minutes
	total time  =          0 seconds =       0.00 minutes
Total time:
	user time   =       0.38 seconds =       0.01 minutes
	system time =       0.00 seconds =       0.00 minutes
	total time  =          1 seconds =       0.02 minutes

    Psi4 stopped on: Friday, 19 July 2019 05:55PM
    Psi4 wall time for execution: 0:00:00.39

*** Psi4 exiting successfully. Buy a developer a beer!
