
    -----------------------------------------------------------------------
          Psi4: An Open-Source Ab Initio Electronic Structure Package
                               Psi4 1.3.2 release

                         Git: Rev {HEAD} ecbda83 


    R. M. Parrish, L. A. Burns, D. G. A. Smith, A. C. Simmonett,
    A. E. DePrince III, E. G. Hohenstein, U. Bozkaya, A. Yu. Sokolov,
    R. Di Remigio, R. M. Richard, J. F. Gonthier, A. M. James,
    H. R. McAlexander, A. Kumar, M. Saitow, X. Wang, B. P. Pritchard,
    P. Verma, H. F. Schaefer III, K. Patkowski, R. A. King, E. F. Valeev,
    F. A. Evangelista, J. M. Turney, T. D. Crawford, and C. D. Sherrill,
    J. Chem. Theory Comput. 13(7) pp 3185--3197 (2017).
    (doi: 10.1021/acs.jctc.7b00174)


                         Additional Contributions by
    P. Kraus, H. Kruse, M. H. Lechner, M. C. Schieber, R. A. Shaw,
    A. Alenaizan, R. Galvelis, Z. L. Glick, S. Lehtola, and J. P. Misiewicz

    -----------------------------------------------------------------------


    Psi4 started on: Friday, 19 July 2019 05:52PM

    Process ID: 19236
    Host:       adabbott
    PSIDATADIR: /home/adabbott/anaconda3/envs/peslearn/share/psi4
    Memory:     500.0 MiB
    Threads:    1
    
  ==> Input File <==

--------------------------------------------------------------------------
# density fitted hartree fock 
molecule h2o {
0 1
H 0.0000000000 0.0000000000 0.9166666667
H 0.0000000000 0.8621905611 -0.2581229094
O 0.0000000000 0.0000000000 0.0000000000
}

set scf_type pk
set basis 6-31g
gradient('hf')

--------------------------------------------------------------------------
gradient() will perform analytic gradient computation.

*** tstart() called on adabbott
*** at Fri Jul 19 17:52:20 2019

   => Loading Basis Set <=

    Name: 6-31G
    Role: ORBITAL
    Keyword: BASIS
    atoms 1-2 entry H          line    26 file /home/adabbott/anaconda3/envs/peslearn/share/psi4/basis/6-31g.gbs 
    atoms 3   entry O          line   117 file /home/adabbott/anaconda3/envs/peslearn/share/psi4/basis/6-31g.gbs 


         ---------------------------------------------------------
                                   SCF
               by Justin Turney, Rob Parrish, Andy Simmonett
                          and Daniel G. A. Smith
                              RHF Reference
                        1 Threads,    500 MiB Core
         ---------------------------------------------------------

  ==> Geometry <==

    Molecular point group: cs
    Full point group: Cs

    Geometry (in Angstrom), charge = 0, multiplicity = 1:

       Center              X                  Y                   Z               Mass       
    ------------   -----------------  -----------------  -----------------  -----------------
         H            0.048245973698    -0.879816246124     0.000000000000     1.007825032230
         H           -0.813944587402     0.294973329976     0.000000000000     1.007825032230
         O            0.048245973698     0.036850420576     0.000000000000    15.994914619570

  Running in cs symmetry.

  Rotational constants: A =     32.02614  B =     15.74832  C =     10.55706 [cm^-1]
  Rotational constants: A = 960119.43224  B = 472122.66909  C = 316492.68554 [MHz]
  Nuclear repulsion =    9.685211762123780

  Charge       = 0
  Multiplicity = 1
  Electrons    = 10
  Nalpha       = 5
  Nbeta        = 5

  ==> Algorithm <==

  SCF Algorithm Type is PK.
  DIIS enabled.
  MOM disabled.
  Fractional occupation disabled.
  Guess Type is SAD.
  Energy threshold   = 1.00e-08
  Density threshold  = 1.00e-08
  Integral threshold = 0.00e+00

  ==> Primary Basis <==

  Basis Set: 6-31G
    Blend: 6-31G
    Number of shells: 9
    Number of basis function: 13
    Number of Cartesian functions: 13
    Spherical Harmonics?: false
    Max angular momentum: 1

  ==> Pre-Iterations <==

   -------------------------------------------------------
    Irrep   Nso     Nmo     Nalpha   Nbeta   Ndocc  Nsocc
   -------------------------------------------------------
     A'        11      11       0       0       0       0
     A"         2       2       0       0       0       0
   -------------------------------------------------------
    Total      13      13       5       5       5       0
   -------------------------------------------------------

  ==> Integral Setup <==

  Using in-core PK algorithm.
   Calculation information:
      Number of atoms:                   3
      Number of AO shells:               9
      Number of primitives:             22
      Number of atomic orbitals:        13
      Number of basis functions:        13

      Integral cutoff                 1.00e-12
      Number of threads:                 1

  Performing in-core PK
  Using 8372 doubles for integral storage.
  We computed 1035 shell quartets total.
  Whereas there are 1035 unique shell quartets.

  ==> DiskJK: Disk-Based J/K Matrices <==

    J tasked:                  Yes
    K tasked:                  Yes
    wK tasked:                  No
    Memory [MiB]:              375
    Schwarz Cutoff:          1E-12

    OpenMP threads:              1

  Minimum eigenvalue in the overlap matrix is 6.1667042249E-02.
  Using Symmetric Orthogonalization.

  SCF Guess: Superposition of Atomic Densities via on-the-fly atomic UHF.

  ==> Iterations <==

                        Total Energy        Delta E     RMS |[F,P]|

   @RHF iter SAD:   -75.59363880453988   -7.55936e+01   0.00000e+00 
   @RHF iter   1:   -75.90834410624045   -3.14705e-01   3.66454e-02 DIIS
   @RHF iter   2:   -75.96285742587115   -5.45133e-02   1.98783e-02 DIIS
   @RHF iter   3:   -75.97975464194668   -1.68972e-02   1.65142e-03 DIIS
   @RHF iter   4:   -75.98001235534356   -2.57713e-04   2.43879e-04 DIIS
   @RHF iter   5:   -75.98001917670229   -6.82136e-06   4.02542e-05 DIIS
   @RHF iter   6:   -75.98001943846481   -2.61763e-07   6.80803e-06 DIIS
   @RHF iter   7:   -75.98001944633626   -7.87145e-09   1.23374e-06 DIIS
   @RHF iter   8:   -75.98001944658684   -2.50580e-10   2.20284e-07 DIIS
   @RHF iter   9:   -75.98001944659262   -5.78382e-12   2.15801e-08 DIIS
   @RHF iter  10:   -75.98001944659268   -5.68434e-14   2.26683e-09 DIIS
  Energy and wave function converged.


  ==> Post-Iterations <==

    Orbital Energies [Eh]
    ---------------------

    Doubly Occupied:                                                      

       1Ap   -20.549128     2Ap    -1.381859     3Ap    -0.742914  
       4Ap    -0.563660     1App   -0.503511  

    Virtual:                                                              

       5Ap     0.215270     6Ap     0.312511     7Ap     1.088533  
       2App    1.164971     8Ap     1.200069     9Ap     1.258085  
      10Ap     1.404430    11Ap     1.690410  

    Final Occupation by Irrep:
             Ap   App 
    DOCC [     4,    1 ]

  @RHF Final Energy:   -75.98001944659268

   => Energetics <=

    Nuclear Repulsion Energy =              9.6852117621237799
    One-Electron Energy =                -123.8483173728500333
    Two-Electron Energy =                  38.1830861641335702
    Total Energy =                        -75.9800194465926779

Computation Completed


Properties will be evaluated at   0.000000,   0.000000,   0.000000 [a0]

Properties computed using the SCF density matrix

  Nuclear Dipole Moment: [e a0]
     X:    -0.7176      Y:    -0.5481      Z:     0.0000

  Electronic Dipole Moment: [e a0]
     X:    -0.0913      Y:    -0.0591      Z:     0.0000

  Dipole Moment: [e a0]
     X:    -0.8089      Y:    -0.6072      Z:     0.0000     Total:     1.0114

  Dipole Moment: [D]
     X:    -2.0559      Y:    -1.5433      Z:     0.0000     Total:     2.5707


*** tstop() called on adabbott at Fri Jul 19 17:52:21 2019
Module time:
	user time   =       0.31 seconds =       0.01 minutes
	system time =       0.02 seconds =       0.00 minutes
	total time  =          1 seconds =       0.02 minutes
Total time:
	user time   =       0.31 seconds =       0.01 minutes
	system time =       0.02 seconds =       0.00 minutes
	total time  =          1 seconds =       0.02 minutes

*** tstart() called on adabbott
*** at Fri Jul 19 17:52:21 2019


         ------------------------------------------------------------
                                   SCF GRAD                          
                          Rob Parrish, Justin Turney,                
                       Andy Simmonett, and Alex Sokolov              
         ------------------------------------------------------------

  ==> Geometry <==

    Molecular point group: cs
    Full point group: Cs

    Geometry (in Angstrom), charge = 0, multiplicity = 1:

       Center              X                  Y                   Z               Mass       
    ------------   -----------------  -----------------  -----------------  -----------------
         H            0.048245973698    -0.879816246124     0.000000000000     1.007825032230
         H           -0.813944587402     0.294973329976     0.000000000000     1.007825032230
         O            0.048245973698     0.036850420576     0.000000000000    15.994914619570

  Nuclear repulsion =    9.685211762123780

  ==> Basis Set <==

  Basis Set: 6-31G
    Blend: 6-31G
    Number of shells: 9
    Number of basis function: 13
    Number of Cartesian functions: 13
    Spherical Harmonics?: false
    Max angular momentum: 1

  ==> DirectJKGrad: Integral-Direct SCF Gradients <==

    Gradient:                    1
    J tasked:                  Yes
    K tasked:                  Yes
    wK tasked:                  No
    Integrals threads:           1
    Schwarz Cutoff:          0E+00


  -Total Gradient:
     Atom            X                  Y                   Z
    ------   -----------------  -----------------  -----------------
       1       -0.012905288425     0.044377874725     0.000000000000
       2        0.062784641528    -0.032517176114     0.000000000000
       3       -0.049879353103    -0.011860698612     0.000000000000


*** tstop() called on adabbott at Fri Jul 19 17:52:21 2019
Module time:
	user time   =       0.04 seconds =       0.00 minutes
	system time =       0.01 seconds =       0.00 minutes
	total time  =          0 seconds =       0.00 minutes
Total time:
	user time   =       0.35 seconds =       0.01 minutes
	system time =       0.03 seconds =       0.00 minutes
	total time  =          1 seconds =       0.02 minutes

    Psi4 stopped on: Friday, 19 July 2019 05:52PM
    Psi4 wall time for execution: 0:00:00.38

*** Psi4 exiting successfully. Buy a developer a beer!
