
Host: n093

Timers On : Thu Dec 17 14:29:57 2020
Timers Off: Thu Dec 17 14:30:12 2020

Wall Time:       14.77 seconds

                                                       Time (seconds)
Module                                       User      System        Wall        Calls

--------------------------------------------------------------------------------------

**************************************************************************************

Host: n093

Timers On : Thu Dec 17 14:36:12 2020
Timers Off: Thu Dec 17 14:36:24 2020

Wall Time:       11.32 seconds

                                                       Time (seconds)
Module                                       User      System        Wall        Calls

--------------------------------------------------------------------------------------

**************************************************************************************

Host: n093

Timers On : Thu Dec 17 15:54:14 2020
Timers Off: Thu Dec 17 15:54:34 2020

Wall Time:       20.03 seconds

                                                       Time (seconds)
Module                                       User      System        Wall        Calls

--------------------------------------------------------------------------------------

**************************************************************************************

Host: n093

Timers On : Thu Dec 17 15:55:57 2020
Timers Off: Thu Dec 17 15:56:14 2020

Wall Time:       17.12 seconds

                                                       Time (seconds)
Module                                       User      System        Wall        Calls

--------------------------------------------------------------------------------------

**************************************************************************************

Host: n093

Timers On : Thu Dec 17 15:56:24 2020
Timers Off: Thu Dec 17 15:56:44 2020

Wall Time:       19.86 seconds

                                                       Time (seconds)
Module                                       User      System        Wall        Calls

--------------------------------------------------------------------------------------

**************************************************************************************

Host: n093

Timers On : Thu Dec 17 15:57:02 2020
Timers Off: Thu Dec 17 15:57:23 2020

Wall Time:       21.13 seconds

                                                       Time (seconds)
Module                                       User      System        Wall        Calls

--------------------------------------------------------------------------------------

**************************************************************************************

Host: n093

Timers On : Thu Dec 17 15:58:55 2020
Timers Off: Thu Dec 17 15:59:17 2020

Wall Time:       22.61 seconds

                                                       Time (seconds)
Module                                       User      System        Wall        Calls

--------------------------------------------------------------------------------------

**************************************************************************************

Host: n093

Timers On : Thu Dec 17 13:55:02 2020
Timers Off: Thu Dec 17 16:13:29 2020

Wall Time:     8307.37 seconds

                                                       Time (seconds)
Module                                       User      System        Wall        Calls

--------------------------------------------------------------------------------------

**************************************************************************************

Host: n093

Timers On : Thu Dec 17 16:34:15 2020
Timers Off: Thu Dec 17 16:34:37 2020

Wall Time:       22.80 seconds

                                                       Time (seconds)
Module                                       User      System        Wall        Calls

--------------------------------------------------------------------------------------

**************************************************************************************

Host: n093

Timers On : Thu Dec 17 16:38:35 2020
Timers Off: Thu Dec 17 16:38:43 2020

Wall Time:        8.75 seconds

                                                       Time (seconds)
Module                                       User      System        Wall        Calls

--------------------------------------------------------------------------------------

**************************************************************************************

Host: n093

Timers On : Thu Dec 17 16:38:44 2020
Timers Off: Thu Dec 17 16:39:02 2020

Wall Time:       18.64 seconds

                                                       Time (seconds)
Module                                       User      System        Wall        Calls

--------------------------------------------------------------------------------------

**************************************************************************************

Host: n093

Timers On : Thu Dec 17 16:39:02 2020
Timers Off: Thu Dec 17 16:39:44 2020

Wall Time:       41.14 seconds

                                                       Time (seconds)
Module                                       User      System        Wall        Calls

--------------------------------------------------------------------------------------

**************************************************************************************

Host: n093

Timers On : Thu Dec 17 16:39:44 2020
Timers Off: Thu Dec 17 16:41:26 2020

Wall Time:      102.57 seconds

                                                       Time (seconds)
Module                                       User      System        Wall        Calls

--------------------------------------------------------------------------------------

**************************************************************************************

Host: n093

Timers On : Thu Dec 17 16:41:27 2020
Timers Off: Thu Dec 17 16:45:44 2020

Wall Time:      257.23 seconds

                                                       Time (seconds)
Module                                       User      System        Wall        Calls

--------------------------------------------------------------------------------------

**************************************************************************************

Host: n093

Timers On : Thu Dec 17 16:45:44 2020
Timers Off: Thu Dec 17 16:57:36 2020

Wall Time:      711.45 seconds

                                                       Time (seconds)
Module                                       User      System        Wall        Calls

--------------------------------------------------------------------------------------

**************************************************************************************

Host: n093

Timers On : Thu Dec 17 16:57:36 2020
Timers Off: Thu Dec 17 16:57:48 2020

Wall Time:       11.08 seconds

                                                       Time (seconds)
Module                                       User      System        Wall        Calls

--------------------------------------------------------------------------------------

**************************************************************************************

Host: n093

Timers On : Thu Dec 17 16:57:48 2020
Timers Off: Thu Dec 17 16:58:10 2020

Wall Time:       22.00 seconds

                                                       Time (seconds)
Module                                       User      System        Wall        Calls

--------------------------------------------------------------------------------------

**************************************************************************************

Host: n093

Timers On : Thu Dec 17 16:58:10 2020
Timers Off: Thu Dec 17 16:58:56 2020

Wall Time:       46.28 seconds

                                                       Time (seconds)
Module                                       User      System        Wall        Calls

--------------------------------------------------------------------------------------

**************************************************************************************

Host: n093

Timers On : Thu Dec 17 16:58:57 2020
Timers Off: Thu Dec 17 17:00:47 2020

Wall Time:      110.15 seconds

                                                       Time (seconds)
Module                                       User      System        Wall        Calls

--------------------------------------------------------------------------------------

**************************************************************************************

Host: n093

Timers On : Thu Dec 17 17:00:47 2020
Timers Off: Thu Dec 17 17:05:35 2020

Wall Time:      287.44 seconds

                                                       Time (seconds)
Module                                       User      System        Wall        Calls

--------------------------------------------------------------------------------------

**************************************************************************************

Host: n093

Timers On : Thu Dec 17 17:05:35 2020
Timers Off: Thu Dec 17 17:18:18 2020

Wall Time:      762.94 seconds

                                                       Time (seconds)
Module                                       User      System        Wall        Calls

--------------------------------------------------------------------------------------

**************************************************************************************

Host: n093

Timers On : Thu Dec 17 17:18:19 2020
Timers Off: Thu Dec 17 17:19:22 2020

Wall Time:       63.17 seconds

                                                       Time (seconds)
Module                                       User      System        Wall        Calls

--------------------------------------------------------------------------------------

**************************************************************************************

Host: n093

Timers On : Thu Dec 17 17:19:22 2020
Timers Off: Thu Dec 17 17:21:42 2020

Wall Time:      139.78 seconds

                                                       Time (seconds)
Module                                       User      System        Wall        Calls

--------------------------------------------------------------------------------------

**************************************************************************************

Host: n093

Timers On : Thu Dec 17 17:21:42 2020
Timers Off: Thu Dec 17 17:26:56 2020

Wall Time:      313.43 seconds

                                                       Time (seconds)
Module                                       User      System        Wall        Calls

--------------------------------------------------------------------------------------

**************************************************************************************

Host: n093

Timers On : Thu Dec 17 17:26:56 2020
Timers Off: Thu Dec 17 17:38:59 2020

Wall Time:      722.02 seconds

                                                       Time (seconds)
Module                                       User      System        Wall        Calls

--------------------------------------------------------------------------------------

**************************************************************************************

Host: n093

Timers On : Thu Dec 17 17:39:00 2020
Timers Off: Thu Dec 17 18:08:00 2020

Wall Time:     1740.72 seconds

                                                       Time (seconds)
Module                                       User      System        Wall        Calls

--------------------------------------------------------------------------------------

**************************************************************************************

Host: n093

Timers On : Thu Dec 17 18:08:03 2020
Timers Off: Thu Dec 17 19:23:43 2020

Wall Time:     4539.74 seconds

                                                       Time (seconds)
Module                                       User      System        Wall        Calls

--------------------------------------------------------------------------------------

**************************************************************************************

Host: n093

Timers On : Fri Dec 18 09:54:26 2020
Timers Off: Fri Dec 18 09:55:27 2020

Wall Time:       60.92 seconds

                                                       Time (seconds)
Module                                       User      System        Wall        Calls

--------------------------------------------------------------------------------------

**************************************************************************************

Host: n093

Timers On : Fri Dec 18 12:42:46 2020
Timers Off: Fri Dec 18 12:42:55 2020

Wall Time:        8.68 seconds

                                                       Time (seconds)
Module                                       User      System        Wall        Calls

--------------------------------------------------------------------------------------

**************************************************************************************

Host: n093

Timers On : Fri Dec 18 15:47:41 2020
Timers Off: Fri Dec 18 15:47:49 2020

Wall Time:        8.02 seconds

                                                       Time (seconds)
Module                                       User      System        Wall        Calls

--------------------------------------------------------------------------------------

**************************************************************************************

Host: n093

Timers On : Fri Dec 18 16:02:29 2020
Timers Off: Fri Dec 18 16:02:36 2020

Wall Time:        7.79 seconds

                                                       Time (seconds)
Module                                       User      System        Wall        Calls

--------------------------------------------------------------------------------------

**************************************************************************************

Host: n093

Timers On : Fri Dec 18 16:02:37 2020
Timers Off: Fri Dec 18 16:02:53 2020

Wall Time:       15.88 seconds

                                                       Time (seconds)
Module                                       User      System        Wall        Calls

--------------------------------------------------------------------------------------

**************************************************************************************

Host: n093

Timers On : Fri Dec 18 16:02:53 2020
Timers Off: Fri Dec 18 16:03:28 2020

Wall Time:       35.46 seconds

                                                       Time (seconds)
Module                                       User      System        Wall        Calls

--------------------------------------------------------------------------------------

**************************************************************************************

Host: n093

Timers On : Fri Dec 18 16:03:29 2020
Timers Off: Fri Dec 18 16:04:47 2020

Wall Time:       78.94 seconds

                                                       Time (seconds)
Module                                       User      System        Wall        Calls

--------------------------------------------------------------------------------------

**************************************************************************************

Host: n093

Timers On : Fri Dec 18 16:04:48 2020
Timers Off: Fri Dec 18 16:08:06 2020

Wall Time:      198.67 seconds

                                                       Time (seconds)
Module                                       User      System        Wall        Calls

--------------------------------------------------------------------------------------

**************************************************************************************

Host: n093

Timers On : Fri Dec 18 16:08:07 2020
Timers Off: Fri Dec 18 16:17:36 2020

Wall Time:      569.36 seconds

                                                       Time (seconds)
Module                                       User      System        Wall        Calls

--------------------------------------------------------------------------------------

**************************************************************************************

Host: n093

Timers On : Fri Dec 18 16:17:37 2020
Timers Off: Fri Dec 18 16:17:47 2020

Wall Time:       10.23 seconds

                                                       Time (seconds)
Module                                       User      System        Wall        Calls

--------------------------------------------------------------------------------------

**************************************************************************************

Host: n093

Timers On : Fri Dec 18 16:17:47 2020
Timers Off: Fri Dec 18 16:18:07 2020

Wall Time:       20.16 seconds

                                                       Time (seconds)
Module                                       User      System        Wall        Calls

--------------------------------------------------------------------------------------

**************************************************************************************

Host: n093

Timers On : Fri Dec 18 16:18:08 2020
Timers Off: Fri Dec 18 16:18:48 2020

Wall Time:       39.93 seconds

                                                       Time (seconds)
Module                                       User      System        Wall        Calls

--------------------------------------------------------------------------------------

**************************************************************************************

Host: n093

Timers On : Fri Dec 18 16:18:48 2020
Timers Off: Fri Dec 18 16:20:19 2020

Wall Time:       91.38 seconds

                                                       Time (seconds)
Module                                       User      System        Wall        Calls

--------------------------------------------------------------------------------------

**************************************************************************************

Host: n093

Timers On : Fri Dec 18 16:20:20 2020
Timers Off: Fri Dec 18 16:24:09 2020

Wall Time:      229.77 seconds

                                                       Time (seconds)
Module                                       User      System        Wall        Calls

--------------------------------------------------------------------------------------

**************************************************************************************

Host: n093

Timers On : Fri Dec 18 16:24:10 2020
Timers Off: Fri Dec 18 16:34:15 2020

Wall Time:      604.98 seconds

                                                       Time (seconds)
Module                                       User      System        Wall        Calls

--------------------------------------------------------------------------------------

**************************************************************************************

Host: n093

Timers On : Fri Dec 18 16:34:16 2020
Timers Off: Fri Dec 18 16:35:17 2020

Wall Time:       61.12 seconds

                                                       Time (seconds)
Module                                       User      System        Wall        Calls

--------------------------------------------------------------------------------------

**************************************************************************************

Host: n093

Timers On : Fri Dec 18 16:35:17 2020
Timers Off: Fri Dec 18 16:37:34 2020

Wall Time:      137.17 seconds

                                                       Time (seconds)
Module                                       User      System        Wall        Calls

--------------------------------------------------------------------------------------

**************************************************************************************

Host: n093

Timers On : Fri Dec 18 16:37:35 2020
Timers Off: Fri Dec 18 16:42:38 2020

Wall Time:      303.62 seconds

                                                       Time (seconds)
Module                                       User      System        Wall        Calls

--------------------------------------------------------------------------------------

**************************************************************************************

Host: n093

Timers On : Fri Dec 18 16:42:39 2020
Timers Off: Fri Dec 18 16:54:18 2020

Wall Time:      699.37 seconds

                                                       Time (seconds)
Module                                       User      System        Wall        Calls

--------------------------------------------------------------------------------------

**************************************************************************************

Host: n093

Timers On : Fri Dec 18 16:54:20 2020
Timers Off: Fri Dec 18 17:22:00 2020

Wall Time:     1660.85 seconds

                                                       Time (seconds)
Module                                       User      System        Wall        Calls

--------------------------------------------------------------------------------------

**************************************************************************************

Host: n093

Timers On : Fri Dec 18 17:22:03 2020
Timers Off: Fri Dec 18 18:36:59 2020

Wall Time:     4495.67 seconds

                                                       Time (seconds)
Module                                       User      System        Wall        Calls

--------------------------------------------------------------------------------------

**************************************************************************************

Host: n093

Timers On : Tue Dec 22 22:54:13 2020
Timers Off: Tue Dec 22 22:54:22 2020

Wall Time:        8.34 seconds

                                                       Time (seconds)
Module                                       User      System        Wall        Calls

--------------------------------------------------------------------------------------

**************************************************************************************

Host: n093

Timers On : Tue Dec 22 22:54:22 2020
Timers Off: Tue Dec 22 22:54:38 2020

Wall Time:       15.93 seconds

                                                       Time (seconds)
Module                                       User      System        Wall        Calls

--------------------------------------------------------------------------------------

**************************************************************************************

Host: n093

Timers On : Tue Dec 22 22:54:38 2020
Timers Off: Tue Dec 22 22:55:12 2020

Wall Time:       33.89 seconds

                                                       Time (seconds)
Module                                       User      System        Wall        Calls

--------------------------------------------------------------------------------------

**************************************************************************************

Host: n093

Timers On : Tue Dec 22 22:55:12 2020
Timers Off: Tue Dec 22 22:56:33 2020

Wall Time:       80.94 seconds

                                                       Time (seconds)
Module                                       User      System        Wall        Calls

--------------------------------------------------------------------------------------

**************************************************************************************

Host: n093

Timers On : Tue Dec 22 22:56:34 2020
Timers Off: Tue Dec 22 22:59:58 2020

Wall Time:      204.37 seconds

                                                       Time (seconds)
Module                                       User      System        Wall        Calls

--------------------------------------------------------------------------------------

**************************************************************************************

Host: n093

Timers On : Tue Dec 22 22:59:58 2020
Timers Off: Tue Dec 22 23:09:16 2020

Wall Time:      558.07 seconds

                                                       Time (seconds)
Module                                       User      System        Wall        Calls

--------------------------------------------------------------------------------------

**************************************************************************************

Host: n093

Timers On : Tue Dec 22 23:09:17 2020
Timers Off: Tue Dec 22 23:09:27 2020

Wall Time:       10.06 seconds

                                                       Time (seconds)
Module                                       User      System        Wall        Calls

--------------------------------------------------------------------------------------

**************************************************************************************

Host: n093

Timers On : Tue Dec 22 23:09:27 2020
Timers Off: Tue Dec 22 23:09:47 2020

Wall Time:       19.45 seconds

                                                       Time (seconds)
Module                                       User      System        Wall        Calls

--------------------------------------------------------------------------------------

**************************************************************************************

Host: n093

Timers On : Tue Dec 22 23:09:47 2020
Timers Off: Tue Dec 22 23:10:26 2020

Wall Time:       39.32 seconds

                                                       Time (seconds)
Module                                       User      System        Wall        Calls

--------------------------------------------------------------------------------------

**************************************************************************************

Host: n093

Timers On : Tue Dec 22 23:10:27 2020
Timers Off: Tue Dec 22 23:12:02 2020

Wall Time:       94.86 seconds

                                                       Time (seconds)
Module                                       User      System        Wall        Calls

--------------------------------------------------------------------------------------

**************************************************************************************

Host: n093

Timers On : Tue Dec 22 23:12:02 2020
Timers Off: Tue Dec 22 23:15:45 2020

Wall Time:      223.29 seconds

                                                       Time (seconds)
Module                                       User      System        Wall        Calls

--------------------------------------------------------------------------------------

**************************************************************************************

Host: n093

Timers On : Tue Dec 22 23:15:46 2020
Timers Off: Tue Dec 22 23:25:48 2020

Wall Time:      601.98 seconds

                                                       Time (seconds)
Module                                       User      System        Wall        Calls

--------------------------------------------------------------------------------------

**************************************************************************************

Host: n093

Timers On : Tue Dec 22 23:25:49 2020
Timers Off: Tue Dec 22 23:26:50 2020

Wall Time:       61.69 seconds

                                                       Time (seconds)
Module                                       User      System        Wall        Calls

--------------------------------------------------------------------------------------

**************************************************************************************

Host: n093

Timers On : Tue Dec 22 23:26:51 2020
Timers Off: Tue Dec 22 23:29:07 2020

Wall Time:      136.85 seconds

                                                       Time (seconds)
Module                                       User      System        Wall        Calls

--------------------------------------------------------------------------------------

**************************************************************************************

Host: n093

Timers On : Tue Dec 22 23:29:08 2020
Timers Off: Tue Dec 22 23:34:14 2020

Wall Time:      305.68 seconds

                                                       Time (seconds)
Module                                       User      System        Wall        Calls

--------------------------------------------------------------------------------------

**************************************************************************************

Host: n093

Timers On : Tue Dec 22 23:34:14 2020
Timers Off: Tue Dec 22 23:45:54 2020

Wall Time:      700.10 seconds

                                                       Time (seconds)
Module                                       User      System        Wall        Calls

--------------------------------------------------------------------------------------

**************************************************************************************

Host: n093

Timers On : Tue Dec 22 23:45:55 2020
Timers Off: Wed Dec 23 00:14:14 2020

Wall Time:     1699.07 seconds

                                                       Time (seconds)
Module                                       User      System        Wall        Calls

--------------------------------------------------------------------------------------

**************************************************************************************

Host: n093

Timers On : Wed Dec 23 00:14:17 2020
Timers Off: Wed Dec 23 01:27:52 2020

Wall Time:     4414.19 seconds

                                                       Time (seconds)
Module                                       User      System        Wall        Calls

--------------------------------------------------------------------------------------

**************************************************************************************

Host: n093

Timers On : Tue Jan 19 00:01:01 2021
Timers Off: Tue Jan 19 00:01:09 2021

Wall Time:        7.95 seconds

                                                       Time (seconds)
Module                                       User      System        Wall        Calls

--------------------------------------------------------------------------------------

**************************************************************************************

Host: n093

Timers On : Tue Jan 19 00:01:10 2021
Timers Off: Tue Jan 19 00:01:26 2021

Wall Time:       16.52 seconds

                                                       Time (seconds)
Module                                       User      System        Wall        Calls

--------------------------------------------------------------------------------------

**************************************************************************************

Host: n093

Timers On : Tue Jan 19 00:01:26 2021
Timers Off: Tue Jan 19 00:02:00 2021

Wall Time:       33.29 seconds

                                                       Time (seconds)
Module                                       User      System        Wall        Calls

--------------------------------------------------------------------------------------

**************************************************************************************

Host: n093

Timers On : Tue Jan 19 00:02:00 2021
Timers Off: Tue Jan 19 00:03:20 2021

Wall Time:       79.85 seconds

                                                       Time (seconds)
Module                                       User      System        Wall        Calls

--------------------------------------------------------------------------------------

**************************************************************************************

Host: n093

Timers On : Tue Jan 19 00:03:20 2021
Timers Off: Tue Jan 19 00:06:50 2021

Wall Time:      209.70 seconds

                                                       Time (seconds)
Module                                       User      System        Wall        Calls

--------------------------------------------------------------------------------------

**************************************************************************************

Host: n093

Timers On : Tue Jan 19 00:06:50 2021
Timers Off: Tue Jan 19 00:16:13 2021

Wall Time:      562.24 seconds

                                                       Time (seconds)
Module                                       User      System        Wall        Calls

--------------------------------------------------------------------------------------

**************************************************************************************

Host: n093

Timers On : Tue Jan 19 00:16:13 2021
Timers Off: Tue Jan 19 00:16:23 2021

Wall Time:       10.06 seconds

                                                       Time (seconds)
Module                                       User      System        Wall        Calls

--------------------------------------------------------------------------------------

**************************************************************************************

Host: n093

Timers On : Tue Jan 19 00:16:23 2021
Timers Off: Tue Jan 19 00:16:43 2021

Wall Time:       19.80 seconds

                                                       Time (seconds)
Module                                       User      System        Wall        Calls

--------------------------------------------------------------------------------------

**************************************************************************************

Host: n093

Timers On : Tue Jan 19 00:16:44 2021
Timers Off: Tue Jan 19 00:17:23 2021

Wall Time:       39.90 seconds

                                                       Time (seconds)
Module                                       User      System        Wall        Calls

--------------------------------------------------------------------------------------

**************************************************************************************

Host: n093

Timers On : Tue Jan 19 00:17:24 2021
Timers Off: Tue Jan 19 00:18:54 2021

Wall Time:       89.86 seconds

                                                       Time (seconds)
Module                                       User      System        Wall        Calls

--------------------------------------------------------------------------------------

**************************************************************************************

Host: n093

Timers On : Tue Jan 19 00:18:54 2021
Timers Off: Tue Jan 19 00:22:36 2021

Wall Time:      221.90 seconds

                                                       Time (seconds)
Module                                       User      System        Wall        Calls

--------------------------------------------------------------------------------------

**************************************************************************************

Host: n093

Timers On : Tue Jan 19 00:22:36 2021
Timers Off: Tue Jan 19 00:32:37 2021

Wall Time:      600.70 seconds

                                                       Time (seconds)
Module                                       User      System        Wall        Calls

--------------------------------------------------------------------------------------

**************************************************************************************

Host: n093

Timers On : Tue Jan 19 00:32:38 2021
Timers Off: Tue Jan 19 00:33:39 2021

Wall Time:       61.16 seconds

                                                       Time (seconds)
Module                                       User      System        Wall        Calls

--------------------------------------------------------------------------------------

**************************************************************************************

Host: n093

Timers On : Tue Jan 19 00:33:39 2021
Timers Off: Tue Jan 19 00:35:59 2021

Wall Time:      139.27 seconds

                                                       Time (seconds)
Module                                       User      System        Wall        Calls

--------------------------------------------------------------------------------------

**************************************************************************************

Host: n093

Timers On : Tue Jan 19 00:35:59 2021
Timers Off: Tue Jan 19 00:41:04 2021

Wall Time:      305.40 seconds

                                                       Time (seconds)
Module                                       User      System        Wall        Calls

--------------------------------------------------------------------------------------

**************************************************************************************

Host: n093

Timers On : Tue Jan 19 00:41:05 2021
Timers Off: Tue Jan 19 00:52:47 2021

Wall Time:      701.77 seconds

                                                       Time (seconds)
Module                                       User      System        Wall        Calls

--------------------------------------------------------------------------------------

**************************************************************************************

Host: n093

Timers On : Tue Jan 19 00:52:48 2021
Timers Off: Tue Jan 19 01:20:51 2021

Wall Time:     1682.55 seconds

                                                       Time (seconds)
Module                                       User      System        Wall        Calls

--------------------------------------------------------------------------------------

**************************************************************************************

Host: n093

Timers On : Tue Jan 19 01:20:53 2021
Timers Off: Tue Jan 19 02:34:02 2021

Wall Time:     4388.64 seconds

                                                       Time (seconds)
Module                                       User      System        Wall        Calls

--------------------------------------------------------------------------------------

**************************************************************************************

Host: n093

Timers On : Fri Jan 22 07:55:31 2021
Timers Off: Fri Jan 22 07:55:38 2021

Wall Time:        7.36 seconds

                                                       Time (seconds)
Module                                       User      System        Wall        Calls

--------------------------------------------------------------------------------------

**************************************************************************************

Host: n093

Timers On : Fri Jan 22 07:55:38 2021
Timers Off: Fri Jan 22 07:55:52 2021

Wall Time:       14.02 seconds

                                                       Time (seconds)
Module                                       User      System        Wall        Calls

--------------------------------------------------------------------------------------

**************************************************************************************

Host: n093

Timers On : Fri Jan 22 07:55:52 2021
Timers Off: Fri Jan 22 07:56:22 2021

Wall Time:       29.13 seconds

                                                       Time (seconds)
Module                                       User      System        Wall        Calls

--------------------------------------------------------------------------------------

**************************************************************************************

Host: n093

Timers On : Fri Jan 22 07:56:22 2021
Timers Off: Fri Jan 22 07:57:33 2021

Wall Time:       70.93 seconds

                                                       Time (seconds)
Module                                       User      System        Wall        Calls

--------------------------------------------------------------------------------------

**************************************************************************************

Host: n093

Timers On : Fri Jan 22 07:57:33 2021
Timers Off: Fri Jan 22 08:00:32 2021

Wall Time:      178.93 seconds

                                                       Time (seconds)
Module                                       User      System        Wall        Calls

--------------------------------------------------------------------------------------

**************************************************************************************

Host: n093

Timers On : Fri Jan 22 08:00:33 2021
Timers Off: Fri Jan 22 08:09:24 2021

Wall Time:      531.70 seconds

                                                       Time (seconds)
Module                                       User      System        Wall        Calls

--------------------------------------------------------------------------------------

**************************************************************************************

Host: n093

Timers On : Fri Jan 22 08:09:25 2021
Timers Off: Fri Jan 22 08:09:35 2021

Wall Time:        9.59 seconds

                                                       Time (seconds)
Module                                       User      System        Wall        Calls

--------------------------------------------------------------------------------------

**************************************************************************************

Host: n093

Timers On : Fri Jan 22 08:09:35 2021
Timers Off: Fri Jan 22 08:09:52 2021

Wall Time:       17.65 seconds

                                                       Time (seconds)
Module                                       User      System        Wall        Calls

--------------------------------------------------------------------------------------

**************************************************************************************

Host: n093

Timers On : Fri Jan 22 08:09:53 2021
Timers Off: Fri Jan 22 08:10:29 2021

Wall Time:       35.90 seconds

                                                       Time (seconds)
Module                                       User      System        Wall        Calls

--------------------------------------------------------------------------------------

**************************************************************************************

Host: n093

Timers On : Fri Jan 22 08:10:29 2021
Timers Off: Fri Jan 22 08:11:48 2021

Wall Time:       79.37 seconds

                                                       Time (seconds)
Module                                       User      System        Wall        Calls

--------------------------------------------------------------------------------------

**************************************************************************************

Host: n093

Timers On : Fri Jan 22 08:11:49 2021
Timers Off: Fri Jan 22 08:15:13 2021

Wall Time:      204.25 seconds

                                                       Time (seconds)
Module                                       User      System        Wall        Calls

--------------------------------------------------------------------------------------

**************************************************************************************

Host: n093

Timers On : Fri Jan 22 08:15:14 2021
Timers Off: Fri Jan 22 08:25:20 2021

Wall Time:      606.68 seconds

                                                       Time (seconds)
Module                                       User      System        Wall        Calls

--------------------------------------------------------------------------------------

**************************************************************************************

Host: n093

Timers On : Fri Jan 22 08:25:21 2021
Timers Off: Fri Jan 22 08:25:50 2021

Wall Time:       28.66 seconds

                                                       Time (seconds)
Module                                       User      System        Wall        Calls

--------------------------------------------------------------------------------------

**************************************************************************************

Host: n093

Timers On : Fri Jan 22 08:25:50 2021
Timers Off: Fri Jan 22 08:27:04 2021

Wall Time:       73.63 seconds

                                                       Time (seconds)
Module                                       User      System        Wall        Calls

--------------------------------------------------------------------------------------

**************************************************************************************

Host: n093

Timers On : Fri Jan 22 08:27:04 2021
Timers Off: Fri Jan 22 08:30:54 2021

Wall Time:      230.41 seconds

                                                       Time (seconds)
Module                                       User      System        Wall        Calls

--------------------------------------------------------------------------------------

**************************************************************************************

Host: n093

Timers On : Fri Jan 22 08:30:55 2021
Timers Off: Fri Jan 22 08:44:53 2021

Wall Time:      837.74 seconds

                                                       Time (seconds)
Module                                       User      System        Wall        Calls

--------------------------------------------------------------------------------------

**************************************************************************************

Host: n093

Timers On : Fri Jan 22 08:44:55 2021
Timers Off: Fri Jan 22 09:45:27 2021

Wall Time:     3632.71 seconds

                                                       Time (seconds)
Module                                       User      System        Wall        Calls

--------------------------------------------------------------------------------------

**************************************************************************************
