
    -----------------------------------------------------------------------
          Psi4: An Open-Source Ab Initio Electronic Structure Package
                               Psi4 1.3.2 release

                         Git: Rev {HEAD} ecbda83 


    R. M. Parrish, L. A. Burns, D. G. A. Smith, A. C. Simmonett,
    A. E. DePrince III, E. G. Hohenstein, U. Bozkaya, A. Yu. Sokolov,
    R. Di Remigio, R. M. Richard, J. F. Gonthier, A. M. James,
    H. R. McAlexander, A. Kumar, M. Saitow, X. Wang, B. P. Pritchard,
    P. Verma, H. F. Schaefer III, K. Patkowski, R. A. King, E. F. Valeev,
    F. A. Evangelista, J. M. Turney, T. D. Crawford, and C. D. Sherrill,
    J. Chem. Theory Comput. 13(7) pp 3185--3197 (2017).
    (doi: 10.1021/acs.jctc.7b00174)


                         Additional Contributions by
    P. Kraus, H. Kruse, M. H. Lechner, M. C. Schieber, R. A. Shaw,
    A. Alenaizan, R. Galvelis, Z. L. Glick, S. Lehtola, and J. P. Misiewicz

    -----------------------------------------------------------------------


    Psi4 started on: Friday, 19 July 2019 05:53PM

    Process ID: 19616
    Host:       adabbott
    PSIDATADIR: /home/adabbott/anaconda3/envs/peslearn/share/psi4
    Memory:     500.0 MiB
    Threads:    1
    
  ==> Input File <==

--------------------------------------------------------------------------
# density fitted hartree fock 
molecule h2o {
0 1
H 0.0000000000 0.0000000000 0.9833333333
H 0.0000000000 0.8082903769 -0.4666666667
O 0.0000000000 0.0000000000 0.0000000000
}

set scf_type pk
set basis 6-31g
gradient('hf')

--------------------------------------------------------------------------
gradient() will perform analytic gradient computation.

*** tstart() called on adabbott
*** at Fri Jul 19 17:53:38 2019

   => Loading Basis Set <=

    Name: 6-31G
    Role: ORBITAL
    Keyword: BASIS
    atoms 1-2 entry H          line    26 file /home/adabbott/anaconda3/envs/peslearn/share/psi4/basis/6-31g.gbs 
    atoms 3   entry O          line   117 file /home/adabbott/anaconda3/envs/peslearn/share/psi4/basis/6-31g.gbs 


         ---------------------------------------------------------
                                   SCF
               by Justin Turney, Rob Parrish, Andy Simmonett
                          and Daniel G. A. Smith
                              RHF Reference
                        1 Threads,    500 MiB Core
         ---------------------------------------------------------

  ==> Geometry <==

    Molecular point group: cs
    Full point group: Cs

    Geometry (in Angstrom), charge = 0, multiplicity = 1:

       Center              X                  Y                   Z               Mass       
    ------------   -----------------  -----------------  -----------------  -----------------
         H            0.045229857555    -0.954421991038     0.000000000000     1.007825032230
         H           -0.763060519345     0.495578008962     0.000000000000     1.007825032230
         O            0.045229857555     0.028911342262     0.000000000000    15.994914619570

  Running in cs symmetry.

  Rotational constants: A =     41.14381  B =     12.12069  C =      9.36255 [cm^-1]
  Rotational constants: A = 1233460.32161  B = 363369.10320  C = 280682.05904 [MHz]
  Nuclear repulsion =    9.159743146777114

  Charge       = 0
  Multiplicity = 1
  Electrons    = 10
  Nalpha       = 5
  Nbeta        = 5

  ==> Algorithm <==

  SCF Algorithm Type is PK.
  DIIS enabled.
  MOM disabled.
  Fractional occupation disabled.
  Guess Type is SAD.
  Energy threshold   = 1.00e-08
  Density threshold  = 1.00e-08
  Integral threshold = 0.00e+00

  ==> Primary Basis <==

  Basis Set: 6-31G
    Blend: 6-31G
    Number of shells: 9
    Number of basis function: 13
    Number of Cartesian functions: 13
    Spherical Harmonics?: false
    Max angular momentum: 1

  ==> Pre-Iterations <==

   -------------------------------------------------------
    Irrep   Nso     Nmo     Nalpha   Nbeta   Ndocc  Nsocc
   -------------------------------------------------------
     A'        11      11       0       0       0       0
     A"         2       2       0       0       0       0
   -------------------------------------------------------
    Total      13      13       5       5       5       0
   -------------------------------------------------------

  ==> Integral Setup <==

  Using in-core PK algorithm.
   Calculation information:
      Number of atoms:                   3
      Number of AO shells:               9
      Number of primitives:             22
      Number of atomic orbitals:        13
      Number of basis functions:        13

      Integral cutoff                 1.00e-12
      Number of threads:                 1

  Performing in-core PK
  Using 8372 doubles for integral storage.
  We computed 1035 shell quartets total.
  Whereas there are 1035 unique shell quartets.

  ==> DiskJK: Disk-Based J/K Matrices <==

    J tasked:                  Yes
    K tasked:                  Yes
    wK tasked:                  No
    Memory [MiB]:              375
    Schwarz Cutoff:          1E-12

    OpenMP threads:              1

  Minimum eigenvalue in the overlap matrix is 7.1712729970E-02.
  Using Symmetric Orthogonalization.

  SCF Guess: Superposition of Atomic Densities via on-the-fly atomic UHF.

  ==> Iterations <==

                        Total Energy        Delta E     RMS |[F,P]|

   @RHF iter SAD:   -75.50750373120582   -7.55075e+01   0.00000e+00 
   @RHF iter   1:   -75.91325853654698   -4.05755e-01   3.58018e-02 DIIS
   @RHF iter   2:   -75.96347181112165   -5.02133e-02   2.04931e-02 DIIS
   @RHF iter   3:   -75.98161414669798   -1.81423e-02   1.69484e-03 DIIS
   @RHF iter   4:   -75.98194060876790   -3.26462e-04   3.17646e-04 DIIS
   @RHF iter   5:   -75.98195527784824   -1.46691e-05   5.54944e-05 DIIS
   @RHF iter   6:   -75.98195591268697   -6.34839e-07   1.28878e-05 DIIS
   @RHF iter   7:   -75.98195594645168   -3.37647e-08   1.96860e-06 DIIS
   @RHF iter   8:   -75.98195594707758   -6.25903e-10   2.76771e-07 DIIS
   @RHF iter   9:   -75.98195594708470   -7.11964e-12   2.87991e-08 DIIS
   @RHF iter  10:   -75.98195594708484   -1.42109e-13   3.62367e-09 DIIS
  Energy and wave function converged.


  ==> Post-Iterations <==

    Orbital Energies [Eh]
    ---------------------

    Doubly Occupied:                                                      

       1Ap   -20.547907     2Ap    -1.339363     3Ap    -0.733263  
       4Ap    -0.531110     1App   -0.493181  

    Virtual:                                                              

       5Ap     0.204313     6Ap     0.302097     7Ap     1.087738  
       8Ap     1.168767     2App    1.170819     9Ap     1.205294  
      10Ap     1.399898    11Ap     1.658176  

    Final Occupation by Irrep:
             Ap   App 
    DOCC [     4,    1 ]

  @RHF Final Energy:   -75.98195594708484

   => Energetics <=

    Nuclear Repulsion Energy =              9.1597431467771138
    One-Electron Energy =                -122.9937498584279467
    Two-Electron Energy =                  37.8520507645659947
    Total Energy =                        -75.9819559470848276

Computation Completed


Properties will be evaluated at   0.000000,   0.000000,   0.000000 [a0]

Properties computed using the SCF density matrix

  Nuclear Dipole Moment: [e a0]
     X:    -0.6727      Y:    -0.4300      Z:     0.0000

  Electronic Dipole Moment: [e a0]
     X:    -0.1124      Y:    -0.0456      Z:     0.0000

  Dipole Moment: [e a0]
     X:    -0.7851      Y:    -0.4756      Z:     0.0000     Total:     0.9179

  Dipole Moment: [D]
     X:    -1.9956      Y:    -1.2088      Z:     0.0000     Total:     2.3332


*** tstop() called on adabbott at Fri Jul 19 17:53:38 2019
Module time:
	user time   =       0.32 seconds =       0.01 minutes
	system time =       0.01 seconds =       0.00 minutes
	total time  =          0 seconds =       0.00 minutes
Total time:
	user time   =       0.32 seconds =       0.01 minutes
	system time =       0.01 seconds =       0.00 minutes
	total time  =          0 seconds =       0.00 minutes

*** tstart() called on adabbott
*** at Fri Jul 19 17:53:38 2019


         ------------------------------------------------------------
                                   SCF GRAD                          
                          Rob Parrish, Justin Turney,                
                       Andy Simmonett, and Alex Sokolov              
         ------------------------------------------------------------

  ==> Geometry <==

    Molecular point group: cs
    Full point group: Cs

    Geometry (in Angstrom), charge = 0, multiplicity = 1:

       Center              X                  Y                   Z               Mass       
    ------------   -----------------  -----------------  -----------------  -----------------
         H            0.045229857555    -0.954421991038     0.000000000000     1.007825032230
         H           -0.763060519345     0.495578008962     0.000000000000     1.007825032230
         O            0.045229857555     0.028911342262     0.000000000000    15.994914619570

  Nuclear repulsion =    9.159743146777114

  ==> Basis Set <==

  Basis Set: 6-31G
    Blend: 6-31G
    Number of shells: 9
    Number of basis function: 13
    Number of Cartesian functions: 13
    Spherical Harmonics?: false
    Max angular momentum: 1

  ==> DirectJKGrad: Integral-Direct SCF Gradients <==

    Gradient:                    1
    J tasked:                  Yes
    K tasked:                  Yes
    wK tasked:                  No
    Integrals threads:           1
    Schwarz Cutoff:          0E+00


  -Total Gradient:
     Atom            X                  Y                   Z
    ------   -----------------  -----------------  -----------------
       1        0.013217297283    -0.039520579112     0.000000000000
       2        0.019844721677     0.004622271699     0.000000000000
       3       -0.033062018960     0.034898307413     0.000000000000


*** tstop() called on adabbott at Fri Jul 19 17:53:38 2019
Module time:
	user time   =       0.04 seconds =       0.00 minutes
	system time =       0.00 seconds =       0.00 minutes
	total time  =          0 seconds =       0.00 minutes
Total time:
	user time   =       0.36 seconds =       0.01 minutes
	system time =       0.01 seconds =       0.00 minutes
	total time  =          0 seconds =       0.00 minutes

    Psi4 stopped on: Friday, 19 July 2019 05:53PM
    Psi4 wall time for execution: 0:00:00.39

*** Psi4 exiting successfully. Buy a developer a beer!
