
    -----------------------------------------------------------------------
          Psi4: An Open-Source Ab Initio Electronic Structure Package
                               Psi4 1.3.2 release

                         Git: Rev {HEAD} ecbda83 


    R. M. Parrish, L. A. Burns, D. G. A. Smith, A. C. Simmonett,
    A. E. DePrince III, E. G. Hohenstein, U. Bozkaya, A. Yu. Sokolov,
    R. Di Remigio, R. M. Richard, J. F. Gonthier, A. M. James,
    H. R. McAlexander, A. Kumar, M. Saitow, X. Wang, B. P. Pritchard,
    P. Verma, H. F. Schaefer III, K. Patkowski, R. A. King, E. F. Valeev,
    F. A. Evangelista, J. M. Turney, T. D. Crawford, and C. D. Sherrill,
    J. Chem. Theory Comput. 13(7) pp 3185--3197 (2017).
    (doi: 10.1021/acs.jctc.7b00174)


                         Additional Contributions by
    P. Kraus, H. Kruse, M. H. Lechner, M. C. Schieber, R. A. Shaw,
    A. Alenaizan, R. Galvelis, Z. L. Glick, S. Lehtola, and J. P. Misiewicz

    -----------------------------------------------------------------------


    Psi4 started on: Friday, 19 July 2019 05:53PM

    Process ID: 19467
    Host:       adabbott
    PSIDATADIR: /home/adabbott/anaconda3/envs/peslearn/share/psi4
    Memory:     500.0 MiB
    Threads:    1
    
  ==> Input File <==

--------------------------------------------------------------------------
# density fitted hartree fock 
molecule h2o {
0 1
H 0.0000000000 0.0000000000 0.9833333333
H 0.0000000000 0.8660254038 -0.5000000000
O 0.0000000000 0.0000000000 0.0000000000
}

set scf_type pk
set basis 6-31g
gradient('hf')

--------------------------------------------------------------------------
gradient() will perform analytic gradient computation.

*** tstart() called on adabbott
*** at Fri Jul 19 17:53:14 2019

   => Loading Basis Set <=

    Name: 6-31G
    Role: ORBITAL
    Keyword: BASIS
    atoms 1-2 entry H          line    26 file /home/adabbott/anaconda3/envs/peslearn/share/psi4/basis/6-31g.gbs 
    atoms 3   entry O          line   117 file /home/adabbott/anaconda3/envs/peslearn/share/psi4/basis/6-31g.gbs 


         ---------------------------------------------------------
                                   SCF
               by Justin Turney, Rob Parrish, Andy Simmonett
                          and Daniel G. A. Smith
                              RHF Reference
                        1 Threads,    500 MiB Core
         ---------------------------------------------------------

  ==> Geometry <==

    Molecular point group: cs
    Full point group: Cs

    Geometry (in Angstrom), charge = 0, multiplicity = 1:

       Center              X                  Y                   Z               Mass       
    ------------   -----------------  -----------------  -----------------  -----------------
         H            0.048460561665    -0.956287238924     0.000000000000     1.007825032230
         H           -0.817564842135     0.527046094376     0.000000000000     1.007825032230
         O            0.048460561665     0.027046094376     0.000000000000    15.994914619570

  Running in cs symmetry.

  Rotational constants: A =     38.31737  B =     11.33730  C =      8.74873 [cm^-1]
  Rotational constants: A = 1148725.73340  B = 339883.73628  C = 262280.47193 [MHz]
  Nuclear repulsion =    8.846672592057832

  Charge       = 0
  Multiplicity = 1
  Electrons    = 10
  Nalpha       = 5
  Nbeta        = 5

  ==> Algorithm <==

  SCF Algorithm Type is PK.
  DIIS enabled.
  MOM disabled.
  Fractional occupation disabled.
  Guess Type is SAD.
  Energy threshold   = 1.00e-08
  Density threshold  = 1.00e-08
  Integral threshold = 0.00e+00

  ==> Primary Basis <==

  Basis Set: 6-31G
    Blend: 6-31G
    Number of shells: 9
    Number of basis function: 13
    Number of Cartesian functions: 13
    Spherical Harmonics?: false
    Max angular momentum: 1

  ==> Pre-Iterations <==

   -------------------------------------------------------
    Irrep   Nso     Nmo     Nalpha   Nbeta   Ndocc  Nsocc
   -------------------------------------------------------
     A'        11      11       0       0       0       0
     A"         2       2       0       0       0       0
   -------------------------------------------------------
    Total      13      13       5       5       5       0
   -------------------------------------------------------

  ==> Integral Setup <==

  Using in-core PK algorithm.
   Calculation information:
      Number of atoms:                   3
      Number of AO shells:               9
      Number of primitives:             22
      Number of atomic orbitals:        13
      Number of basis functions:        13

      Integral cutoff                 1.00e-12
      Number of threads:                 1

  Performing in-core PK
  Using 8372 doubles for integral storage.
  We computed 1035 shell quartets total.
  Whereas there are 1035 unique shell quartets.

  ==> DiskJK: Disk-Based J/K Matrices <==

    J tasked:                  Yes
    K tasked:                  Yes
    wK tasked:                  No
    Memory [MiB]:              375
    Schwarz Cutoff:          1E-12

    OpenMP threads:              1

  Minimum eigenvalue in the overlap matrix is 7.6843275239E-02.
  Using Symmetric Orthogonalization.

  SCF Guess: Superposition of Atomic Densities via on-the-fly atomic UHF.

  ==> Iterations <==

                        Total Energy        Delta E     RMS |[F,P]|

   @RHF iter SAD:   -75.45809880705275   -7.54581e+01   0.00000e+00 
   @RHF iter   1:   -75.90922438368676   -4.51126e-01   3.56509e-02 DIIS
   @RHF iter   2:   -75.95929677594810   -5.00724e-02   2.12518e-02 DIIS
   @RHF iter   3:   -75.97888358925741   -1.95868e-02   1.76319e-03 DIIS
   @RHF iter   4:   -75.97926470433217   -3.81115e-04   3.59099e-04 DIIS
   @RHF iter   5:   -75.97928333234896   -1.86280e-05   6.02519e-05 DIIS
   @RHF iter   6:   -75.97928409337089   -7.61022e-07   1.54171e-05 DIIS
   @RHF iter   7:   -75.97928414412226   -5.07514e-08   2.35476e-06 DIIS
   @RHF iter   8:   -75.97928414507679   -9.54529e-10   3.31443e-07 DIIS
   @RHF iter   9:   -75.97928414508699   -1.02034e-11   3.45015e-08 DIIS
   @RHF iter  10:   -75.97928414508722   -2.27374e-13   3.80529e-09 DIIS
  Energy and wave function converged.


  ==> Post-Iterations <==

    Orbital Energies [Eh]
    ---------------------

    Doubly Occupied:                                                      

       1Ap   -20.553800     2Ap    -1.322360     3Ap    -0.712960  
       4Ap    -0.526349     1App   -0.490803  

    Virtual:                                                              

       5Ap     0.195058     6Ap     0.294066     7Ap     1.060402  
       8Ap     1.140148     2App    1.171327     9Ap     1.205792  
      10Ap     1.398865    11Ap     1.652274  

    Final Occupation by Irrep:
             Ap   App 
    DOCC [     4,    1 ]

  @RHF Final Energy:   -75.97928414508722

   => Energetics <=

    Nuclear Repulsion Energy =              8.8466725920578320
    One-Electron Energy =                -122.4393688337960384
    Two-Electron Energy =                  37.6134120966509968
    Total Energy =                        -75.9792841450872061

Computation Completed


Properties will be evaluated at   0.000000,   0.000000,   0.000000 [a0]

Properties computed using the SCF density matrix

  Nuclear Dipole Moment: [e a0]
     X:    -0.7208      Y:    -0.4023      Z:     0.0000

  Electronic Dipole Moment: [e a0]
     X:    -0.0816      Y:    -0.0540      Z:     0.0000

  Dipole Moment: [e a0]
     X:    -0.8023      Y:    -0.4563      Z:     0.0000     Total:     0.9230

  Dipole Moment: [D]
     X:    -2.0393      Y:    -1.1598      Z:     0.0000     Total:     2.3460


*** tstop() called on adabbott at Fri Jul 19 17:53:15 2019
Module time:
	user time   =       0.33 seconds =       0.01 minutes
	system time =       0.00 seconds =       0.00 minutes
	total time  =          1 seconds =       0.02 minutes
Total time:
	user time   =       0.33 seconds =       0.01 minutes
	system time =       0.00 seconds =       0.00 minutes
	total time  =          1 seconds =       0.02 minutes

*** tstart() called on adabbott
*** at Fri Jul 19 17:53:15 2019


         ------------------------------------------------------------
                                   SCF GRAD                          
                          Rob Parrish, Justin Turney,                
                       Andy Simmonett, and Alex Sokolov              
         ------------------------------------------------------------

  ==> Geometry <==

    Molecular point group: cs
    Full point group: Cs

    Geometry (in Angstrom), charge = 0, multiplicity = 1:

       Center              X                  Y                   Z               Mass       
    ------------   -----------------  -----------------  -----------------  -----------------
         H            0.048460561665    -0.956287238924     0.000000000000     1.007825032230
         H           -0.817564842135     0.527046094376     0.000000000000     1.007825032230
         O            0.048460561665     0.027046094376     0.000000000000    15.994914619570

  Nuclear repulsion =    8.846672592057832

  ==> Basis Set <==

  Basis Set: 6-31G
    Blend: 6-31G
    Number of shells: 9
    Number of basis function: 13
    Number of Cartesian functions: 13
    Spherical Harmonics?: false
    Max angular momentum: 1

  ==> DirectJKGrad: Integral-Direct SCF Gradients <==

    Gradient:                    1
    J tasked:                  Yes
    K tasked:                  Yes
    wK tasked:                  No
    Integrals threads:           1
    Schwarz Cutoff:          0E+00


  -Total Gradient:
     Atom            X                  Y                   Z
    ------   -----------------  -----------------  -----------------
       1        0.015422161663    -0.037703467405     0.000000000000
       2       -0.037470057313     0.039144527173     0.000000000000
       3        0.022047895650    -0.001441059768     0.000000000000


*** tstop() called on adabbott at Fri Jul 19 17:53:15 2019
Module time:
	user time   =       0.05 seconds =       0.00 minutes
	system time =       0.00 seconds =       0.00 minutes
	total time  =          0 seconds =       0.00 minutes
Total time:
	user time   =       0.38 seconds =       0.01 minutes
	system time =       0.00 seconds =       0.00 minutes
	total time  =          1 seconds =       0.02 minutes

    Psi4 stopped on: Friday, 19 July 2019 05:53PM
    Psi4 wall time for execution: 0:00:00.41

*** Psi4 exiting successfully. Buy a developer a beer!
