
    -----------------------------------------------------------------------
          Psi4: An Open-Source Ab Initio Electronic Structure Package
                               Psi4 1.3.2 release

                         Git: Rev {HEAD} ecbda83 


    R. M. Parrish, L. A. Burns, D. G. A. Smith, A. C. Simmonett,
    A. E. DePrince III, E. G. Hohenstein, U. Bozkaya, A. Yu. Sokolov,
    R. Di Remigio, R. M. Richard, J. F. Gonthier, A. M. James,
    H. R. McAlexander, A. Kumar, M. Saitow, X. Wang, B. P. Pritchard,
    P. Verma, H. F. Schaefer III, K. Patkowski, R. A. King, E. F. Valeev,
    F. A. Evangelista, J. M. Turney, T. D. Crawford, and C. D. Sherrill,
    J. Chem. Theory Comput. 13(7) pp 3185--3197 (2017).
    (doi: 10.1021/acs.jctc.7b00174)


                         Additional Contributions by
    P. Kraus, H. Kruse, M. H. Lechner, M. C. Schieber, R. A. Shaw,
    A. Alenaizan, R. Galvelis, Z. L. Glick, S. Lehtola, and J. P. Misiewicz

    -----------------------------------------------------------------------


    Psi4 started on: Friday, 19 July 2019 05:53PM

    Process ID: 19691
    Host:       adabbott
    PSIDATADIR: /home/adabbott/anaconda3/envs/peslearn/share/psi4
    Memory:     500.0 MiB
    Threads:    1
    
  ==> Input File <==

--------------------------------------------------------------------------
# density fitted hartree fock 
molecule h2o {
0 1
H 0.0000000000 0.0000000000 0.9500000000
H 0.0000000000 0.9730448706 -0.2306158707
O 0.0000000000 0.0000000000 0.0000000000
}

set scf_type pk
set basis 6-31g
gradient('hf')

--------------------------------------------------------------------------
gradient() will perform analytic gradient computation.

*** tstart() called on adabbott
*** at Fri Jul 19 17:53:55 2019

   => Loading Basis Set <=

    Name: 6-31G
    Role: ORBITAL
    Keyword: BASIS
    atoms 1-2 entry H          line    26 file /home/adabbott/anaconda3/envs/peslearn/share/psi4/basis/6-31g.gbs 
    atoms 3   entry O          line   117 file /home/adabbott/anaconda3/envs/peslearn/share/psi4/basis/6-31g.gbs 


         ---------------------------------------------------------
                                   SCF
               by Justin Turney, Rob Parrish, Andy Simmonett
                          and Daniel G. A. Smith
                              RHF Reference
                        1 Threads,    500 MiB Core
         ---------------------------------------------------------

  ==> Geometry <==

    Molecular point group: cs
    Full point group: Cs

    Geometry (in Angstrom), charge = 0, multiplicity = 1:

       Center              X                  Y                   Z               Mass       
    ------------   -----------------  -----------------  -----------------  -----------------
         H            0.054449096698    -0.909745108162     0.000000000000     1.007825032230
         H           -0.918595773902     0.270870762538     0.000000000000     1.007825032230
         O            0.054449096698     0.040254891838     0.000000000000    15.994914619570

  Running in cs symmetry.

  Rotational constants: A =     25.88486  B =     14.24326  C =      9.18769 [cm^-1]
  Rotational constants: A = 776008.46074  B = 427002.20489  C = 275440.05487 [MHz]
  Nuclear repulsion =    9.035531266829315

  Charge       = 0
  Multiplicity = 1
  Electrons    = 10
  Nalpha       = 5
  Nbeta        = 5

  ==> Algorithm <==

  SCF Algorithm Type is PK.
  DIIS enabled.
  MOM disabled.
  Fractional occupation disabled.
  Guess Type is SAD.
  Energy threshold   = 1.00e-08
  Density threshold  = 1.00e-08
  Integral threshold = 0.00e+00

  ==> Primary Basis <==

  Basis Set: 6-31G
    Blend: 6-31G
    Number of shells: 9
    Number of basis function: 13
    Number of Cartesian functions: 13
    Spherical Harmonics?: false
    Max angular momentum: 1

  ==> Pre-Iterations <==

   -------------------------------------------------------
    Irrep   Nso     Nmo     Nalpha   Nbeta   Ndocc  Nsocc
   -------------------------------------------------------
     A'        11      11       0       0       0       0
     A"         2       2       0       0       0       0
   -------------------------------------------------------
    Total      13      13       5       5       5       0
   -------------------------------------------------------

  ==> Integral Setup <==

  Using in-core PK algorithm.
   Calculation information:
      Number of atoms:                   3
      Number of AO shells:               9
      Number of primitives:             22
      Number of atomic orbitals:        13
      Number of basis functions:        13

      Integral cutoff                 1.00e-12
      Number of threads:                 1

  Performing in-core PK
  Using 8372 doubles for integral storage.
  We computed 1035 shell quartets total.
  Whereas there are 1035 unique shell quartets.

  ==> DiskJK: Disk-Based J/K Matrices <==

    J tasked:                  Yes
    K tasked:                  Yes
    wK tasked:                  No
    Memory [MiB]:              375
    Schwarz Cutoff:          1E-12

    OpenMP threads:              1

  Minimum eigenvalue in the overlap matrix is 6.9602214384E-02.
  Using Symmetric Orthogonalization.

  SCF Guess: Superposition of Atomic Densities via on-the-fly atomic UHF.

  ==> Iterations <==

                        Total Energy        Delta E     RMS |[F,P]|

   @RHF iter SAD:   -75.49874148288396   -7.54987e+01   0.00000e+00 
   @RHF iter   1:   -75.90643372392945   -4.07692e-01   3.62305e-02 DIIS
   @RHF iter   2:   -75.96123811242549   -5.48044e-02   2.15451e-02 DIIS
   @RHF iter   3:   -75.98125056349846   -2.00125e-02   1.76790e-03 DIIS
   @RHF iter   4:   -75.98160311804426   -3.52555e-04   3.35918e-04 DIIS
   @RHF iter   5:   -75.98161600238265   -1.28843e-05   4.63387e-05 DIIS
   @RHF iter   6:   -75.98161634276262   -3.40380e-07   8.39676e-06 DIIS
   @RHF iter   7:   -75.98161635488637   -1.21237e-08   1.75740e-06 DIIS
   @RHF iter   8:   -75.98161635546354   -5.77174e-10   3.41092e-07 DIIS
   @RHF iter   9:   -75.98161635547967   -1.61293e-11   3.41910e-08 DIIS
   @RHF iter  10:   -75.98161635547991   -2.41585e-13   4.15315e-09 DIIS
  Energy and wave function converged.


  ==> Post-Iterations <==

    Orbital Energies [Eh]
    ---------------------

    Doubly Occupied:                                                      

       1Ap   -20.564768     2Ap    -1.349024     3Ap    -0.698509  
       4Ap    -0.560099     1App   -0.501102  

    Virtual:                                                              

       5Ap     0.198704     6Ap     0.294877     7Ap     1.041119  
       2App    1.163984     8Ap     1.172048     9Ap     1.219076  
      10Ap     1.375007    11Ap     1.699323  

    Final Occupation by Irrep:
             Ap   App 
    DOCC [     4,    1 ]

  @RHF Final Energy:   -75.98161635547991

   => Energetics <=

    Nuclear Repulsion Energy =              9.0355312668293148
    One-Electron Energy =                -122.6872895195131719
    Two-Electron Energy =                  37.6701418972039477
    Total Energy =                        -75.9816163554799147

Computation Completed


Properties will be evaluated at   0.000000,   0.000000,   0.000000 [a0]

Properties computed using the SCF density matrix

  Nuclear Dipole Moment: [e a0]
     X:    -0.8098      Y:    -0.5987      Z:     0.0000

  Electronic Dipole Moment: [e a0]
     X:    -0.0144      Y:    -0.0437      Z:     0.0000

  Dipole Moment: [e a0]
     X:    -0.8243      Y:    -0.6424      Z:     0.0000     Total:     1.0450

  Dipole Moment: [D]
     X:    -2.0951      Y:    -1.6328      Z:     0.0000     Total:     2.6562


*** tstop() called on adabbott at Fri Jul 19 17:53:55 2019
Module time:
	user time   =       0.35 seconds =       0.01 minutes
	system time =       0.00 seconds =       0.00 minutes
	total time  =          0 seconds =       0.00 minutes
Total time:
	user time   =       0.35 seconds =       0.01 minutes
	system time =       0.00 seconds =       0.00 minutes
	total time  =          0 seconds =       0.00 minutes

*** tstart() called on adabbott
*** at Fri Jul 19 17:53:55 2019


         ------------------------------------------------------------
                                   SCF GRAD                          
                          Rob Parrish, Justin Turney,                
                       Andy Simmonett, and Alex Sokolov              
         ------------------------------------------------------------

  ==> Geometry <==

    Molecular point group: cs
    Full point group: Cs

    Geometry (in Angstrom), charge = 0, multiplicity = 1:

       Center              X                  Y                   Z               Mass       
    ------------   -----------------  -----------------  -----------------  -----------------
         H            0.054449096698    -0.909745108162     0.000000000000     1.007825032230
         H           -0.918595773902     0.270870762538     0.000000000000     1.007825032230
         O            0.054449096698     0.040254891838     0.000000000000    15.994914619570

  Nuclear repulsion =    9.035531266829315

  ==> Basis Set <==

  Basis Set: 6-31G
    Blend: 6-31G
    Number of shells: 9
    Number of basis function: 13
    Number of Cartesian functions: 13
    Spherical Harmonics?: false
    Max angular momentum: 1

  ==> DirectJKGrad: Integral-Direct SCF Gradients <==

    Gradient:                    1
    J tasked:                  Yes
    K tasked:                  Yes
    wK tasked:                  No
    Integrals threads:           1
    Schwarz Cutoff:          0E+00


  -Total Gradient:
     Atom            X                  Y                   Z
    ------   -----------------  -----------------  -----------------
       1       -0.012869186112     0.005801696389     0.000000000000
       2       -0.043409885440    -0.002276068677     0.000000000000
       3        0.056279071552    -0.003525627712     0.000000000000


*** tstop() called on adabbott at Fri Jul 19 17:53:55 2019
Module time:
	user time   =       0.04 seconds =       0.00 minutes
	system time =       0.00 seconds =       0.00 minutes
	total time  =          0 seconds =       0.00 minutes
Total time:
	user time   =       0.39 seconds =       0.01 minutes
	system time =       0.00 seconds =       0.00 minutes
	total time  =          0 seconds =       0.00 minutes

    Psi4 stopped on: Friday, 19 July 2019 05:53PM
    Psi4 wall time for execution: 0:00:00.41

*** Psi4 exiting successfully. Buy a developer a beer!
