
Host: adabbott

Timers On : Fri Oct 23 14:52:55 2020
Timers Off: Fri Oct 23 14:52:56 2020

Wall Time:        0.36 seconds

                                                       Time (seconds)
Module                                       User      System        Wall        Calls

--------------------------------------------------------------------------------------

**************************************************************************************

Host: adabbott

Timers On : Fri Oct 23 14:53:01 2020
Timers Off: Fri Oct 23 14:53:02 2020

Wall Time:        0.65 seconds

                                                       Time (seconds)
Module                                       User      System        Wall        Calls

--------------------------------------------------------------------------------------

**************************************************************************************

Host: adabbott

Timers On : Fri Oct 23 14:53:22 2020
Timers Off: Fri Oct 23 14:53:23 2020

Wall Time:        0.64 seconds

                                                       Time (seconds)
Module                                       User      System        Wall        Calls

--------------------------------------------------------------------------------------

**************************************************************************************

Host: adabbott

Timers On : Fri Oct 23 15:48:26 2020
Timers Off: Fri Oct 23 15:48:27 2020

Wall Time:        0.67 seconds

                                                       Time (seconds)
Module                                       User      System        Wall        Calls

--------------------------------------------------------------------------------------

**************************************************************************************
