
    -----------------------------------------------------------------------
          Psi4: An Open-Source Ab Initio Electronic Structure Package
                               Psi4 1.3.2 release

                         Git: Rev {HEAD} ecbda83 


    R. M. Parrish, L. A. Burns, D. G. A. Smith, A. C. Simmonett,
    A. E. DePrince III, E. G. Hohenstein, U. Bozkaya, A. Yu. Sokolov,
    R. Di Remigio, R. M. Richard, J. F. Gonthier, A. M. James,
    H. R. McAlexander, A. Kumar, M. Saitow, X. Wang, B. P. Pritchard,
    P. Verma, H. F. Schaefer III, K. Patkowski, R. A. King, E. F. Valeev,
    F. A. Evangelista, J. M. Turney, T. D. Crawford, and C. D. Sherrill,
    J. Chem. Theory Comput. 13(7) pp 3185--3197 (2017).
    (doi: 10.1021/acs.jctc.7b00174)


                         Additional Contributions by
    P. Kraus, H. Kruse, M. H. Lechner, M. C. Schieber, R. A. Shaw,
    A. Alenaizan, R. Galvelis, Z. L. Glick, S. Lehtola, and J. P. Misiewicz

    -----------------------------------------------------------------------


    Psi4 started on: Monday, 22 July 2019 01:01PM

    Process ID: 18023
    Host:       adabbott
    PSIDATADIR: /home/adabbott/anaconda3/envs/peslearn/share/psi4
    Memory:     500.0 MiB
    Threads:    1
    
  ==> Input File <==

--------------------------------------------------------------------------
# density fitted hartree fock 
molecule h2o {
0 1
H 0.0000000000 0.0000000000 0.9000000000
H 0.0000000000 0.9029125051 -0.3894784366
O 0.0000000000 0.0000000000 0.0000000000
}

set scf_type pk
set basis 6-31g
gradient('hf')

--------------------------------------------------------------------------
gradient() will perform analytic gradient computation.

*** tstart() called on adabbott
*** at Mon Jul 22 13:01:45 2019

   => Loading Basis Set <=

    Name: 6-31G
    Role: ORBITAL
    Keyword: BASIS
    atoms 1-2 entry H          line    26 file /home/adabbott/anaconda3/envs/peslearn/share/psi4/basis/6-31g.gbs 
    atoms 3   entry O          line   117 file /home/adabbott/anaconda3/envs/peslearn/share/psi4/basis/6-31g.gbs 


         ---------------------------------------------------------
                                   SCF
               by Justin Turney, Rob Parrish, Andy Simmonett
                          and Daniel G. A. Smith
                              RHF Reference
                        1 Threads,    500 MiB Core
         ---------------------------------------------------------

  ==> Geometry <==

    Molecular point group: cs
    Full point group: Cs

    Geometry (in Angstrom), charge = 0, multiplicity = 1:

       Center              X                  Y                   Z               Mass       
    ------------   -----------------  -----------------  -----------------  -----------------
         H            0.050524669299    -0.871432521961     0.000000000000     1.007825032230
         H           -0.852387835801     0.418045914639     0.000000000000     1.007825032230
         O            0.050524669299     0.028567478039     0.000000000000    15.994914619570

  Running in cs symmetry.

  Rotational constants: A =     35.54187  B =     13.42306  C =      9.74331 [cm^-1]
  Rotational constants: A = 1065518.46220  B = 402413.17018  C = 292097.16093 [MHz]
  Nuclear repulsion =    9.345131015683474

  Charge       = 0
  Multiplicity = 1
  Electrons    = 10
  Nalpha       = 5
  Nbeta        = 5

  ==> Algorithm <==

  SCF Algorithm Type is PK.
  DIIS enabled.
  MOM disabled.
  Fractional occupation disabled.
  Guess Type is SAD.
  Energy threshold   = 1.00e-08
  Density threshold  = 1.00e-08
  Integral threshold = 0.00e+00

  ==> Primary Basis <==

  Basis Set: 6-31G
    Blend: 6-31G
    Number of shells: 9
    Number of basis function: 13
    Number of Cartesian functions: 13
    Spherical Harmonics?: false
    Max angular momentum: 1

  ==> Pre-Iterations <==

   -------------------------------------------------------
    Irrep   Nso     Nmo     Nalpha   Nbeta   Ndocc  Nsocc
   -------------------------------------------------------
     A'        11      11       0       0       0       0
     A"         2       2       0       0       0       0
   -------------------------------------------------------
    Total      13      13       5       5       5       0
   -------------------------------------------------------

  ==> Integral Setup <==

  Using in-core PK algorithm.
   Calculation information:
      Number of atoms:                   3
      Number of AO shells:               9
      Number of primitives:             22
      Number of atomic orbitals:        13
      Number of basis functions:        13

      Integral cutoff                 1.00e-12
      Number of threads:                 1

  Performing in-core PK
  Using 8372 doubles for integral storage.
  We computed 1035 shell quartets total.
  Whereas there are 1035 unique shell quartets.

  ==> DiskJK: Disk-Based J/K Matrices <==

    J tasked:                  Yes
    K tasked:                  Yes
    wK tasked:                  No
    Memory [MiB]:              375
    Schwarz Cutoff:          1E-12

    OpenMP threads:              1

  Minimum eigenvalue in the overlap matrix is 6.6883741272E-02.
  Using Symmetric Orthogonalization.

  SCF Guess: Superposition of Atomic Densities via on-the-fly atomic UHF.

  ==> Iterations <==

                        Total Energy        Delta E     RMS |[F,P]|

   @RHF iter SAD:   -75.53643396983720   -7.55364e+01   0.00000e+00 
   @RHF iter   1:   -75.91046323693561   -3.74029e-01   3.61785e-02 DIIS
   @RHF iter   2:   -75.96293223689062   -5.24690e-02   2.04163e-02 DIIS
   @RHF iter   3:   -75.98086594765913   -1.79337e-02   1.70021e-03 DIIS
   @RHF iter   4:   -75.98117810976774   -3.12162e-04   3.01130e-04 DIIS
   @RHF iter   5:   -75.98119011777102   -1.20080e-05   5.06185e-05 DIIS
   @RHF iter   6:   -75.98119060005476   -4.82284e-07   1.07327e-05 DIIS
   @RHF iter   7:   -75.98119062211987   -2.20651e-08   1.81204e-06 DIIS
   @RHF iter   8:   -75.98119062266537   -5.45498e-10   2.75871e-07 DIIS
   @RHF iter   9:   -75.98119062267334   -7.97229e-12   2.92797e-08 DIIS
   @RHF iter  10:   -75.98119062267345   -1.13687e-13   4.10142e-09 DIIS
  Energy and wave function converged.


  ==> Post-Iterations <==

    Orbital Energies [Eh]
    ---------------------

    Doubly Occupied:                                                      

       1Ap   -20.550405     2Ap    -1.356792     3Ap    -0.734145  
       4Ap    -0.545727     1App   -0.498068  

    Virtual:                                                              

       5Ap     0.207662     6Ap     0.305412     7Ap     1.098293  
       2App    1.167774     8Ap     1.176874     9Ap     1.210303  
      10Ap     1.400028    11Ap     1.673615  

    Final Occupation by Irrep:
             Ap   App 
    DOCC [     4,    1 ]

  @RHF Final Energy:   -75.98119062267345

   => Energetics <=

    Nuclear Repulsion Energy =              9.3451310156834744
    One-Electron Energy =                -123.2823708638602511
    Two-Electron Energy =                  37.9560492255033139
    Total Energy =                        -75.9811906226734664

Computation Completed


Properties will be evaluated at   0.000000,   0.000000,   0.000000 [a0]

Properties computed using the SCF density matrix

  Nuclear Dipole Moment: [e a0]
     X:    -0.7515      Y:    -0.4249      Z:     0.0000

  Electronic Dipole Moment: [e a0]
     X:    -0.0719      Y:    -0.0861      Z:     0.0000

  Dipole Moment: [e a0]
     X:    -0.8234      Y:    -0.5110      Z:     0.0000     Total:     0.9691

  Dipole Moment: [D]
     X:    -2.0929      Y:    -1.2989      Z:     0.0000     Total:     2.4632


*** tstop() called on adabbott at Mon Jul 22 13:01:46 2019
Module time:
	user time   =       0.30 seconds =       0.00 minutes
	system time =       0.01 seconds =       0.00 minutes
	total time  =          1 seconds =       0.02 minutes
Total time:
	user time   =       0.30 seconds =       0.00 minutes
	system time =       0.01 seconds =       0.00 minutes
	total time  =          1 seconds =       0.02 minutes

*** tstart() called on adabbott
*** at Mon Jul 22 13:01:46 2019


         ------------------------------------------------------------
                                   SCF GRAD                          
                          Rob Parrish, Justin Turney,                
                       Andy Simmonett, and Alex Sokolov              
         ------------------------------------------------------------

  ==> Geometry <==

    Molecular point group: cs
    Full point group: Cs

    Geometry (in Angstrom), charge = 0, multiplicity = 1:

       Center              X                  Y                   Z               Mass       
    ------------   -----------------  -----------------  -----------------  -----------------
         H            0.050524669299    -0.871432521961     0.000000000000     1.007825032230
         H           -0.852387835801     0.418045914639     0.000000000000     1.007825032230
         O            0.050524669299     0.028567478039     0.000000000000    15.994914619570

  Nuclear repulsion =    9.345131015683474

  ==> Basis Set <==

  Basis Set: 6-31G
    Blend: 6-31G
    Number of shells: 9
    Number of basis function: 13
    Number of Cartesian functions: 13
    Spherical Harmonics?: false
    Max angular momentum: 1

  ==> DirectJKGrad: Integral-Direct SCF Gradients <==

    Gradient:                    1
    J tasked:                  Yes
    K tasked:                  Yes
    wK tasked:                  No
    Integrals threads:           1
    Schwarz Cutoff:          0E+00


  -Total Gradient:
     Atom            X                  Y                   Z
    ------   -----------------  -----------------  -----------------
       1        0.002622105194     0.066027824483     0.000000000000
       2       -0.031976468765     0.016406950877     0.000000000000
       3        0.029354363571    -0.082434775360     0.000000000000


*** tstop() called on adabbott at Mon Jul 22 13:01:46 2019
Module time:
	user time   =       0.04 seconds =       0.00 minutes
	system time =       0.01 seconds =       0.00 minutes
	total time  =          0 seconds =       0.00 minutes
Total time:
	user time   =       0.34 seconds =       0.01 minutes
	system time =       0.02 seconds =       0.00 minutes
	total time  =          1 seconds =       0.02 minutes

    Psi4 stopped on: Monday, 22 July 2019 01:01PM
    Psi4 wall time for execution: 0:00:00.36

*** Psi4 exiting successfully. Buy a developer a beer!
